 Q-Chem 5.1, Q-Chem, Inc., Pleasanton, CA (2018)
 Q-Chem 5.1.2 for Intel X86 EM64T Linux

User input:
--------------------------------------------------------------
$molecule
0 1
--
0 1
Si     1.877277124    -0.264555006    -0.002147324
H     1.013054241     0.893525003     0.332506176
H     1.752218881    -1.299809326     1.036281626
H     1.434006711    -0.793004013    -1.311922261
O     3.481273335     0.161191906    -0.019552128
H     3.741996224     0.827557153    -0.657431446
--
0 1
Si    -1.118174975     0.219097698     0.038072495
H    -0.247072887    -0.969746919     0.204513322
H    -0.998219028     1.096468703     1.213539403
H    -0.679124645     0.931183136    -1.183149248
O    -2.719718340    -0.209052255    -0.039922143
H    -2.977845249    -0.775949990    -0.768566233
$end

$rem
BASIS = aug-cc-pVTZ
JOB_TYPE  =  BSSE
METHOD  =  MP2
SCF_CONVERGENCE  =  7
SCF_MAX_CYCLES  =  200
$end

--------------------------------------------------------------

             Standard Nuclear Orientation (Angstroms)
    I     Atom           X                Y                Z
 ----------------------------------------------------------------
    1      Si      1.4967725915    -0.2439257618     0.0400103838
    2      H       0.6345638149     0.9384807347     0.2819491495
    3      H       1.3684299634    -1.1945246961     1.1560818831
    4      H       1.0538711548    -0.8723453468    -1.2249736241
    5      O       3.1016600473     0.1760021681    -0.0086105277
    6      H       3.3644625885     0.7899111570    -0.6963311609
    7      Si     -1.4977205295     0.2472762647     0.0384718227
    8      H      -0.6292527117    -0.9266140181     0.2985067692
    9      H      -1.3772652616     1.2136764399     1.1418543453
   10      H      -1.0558487125     0.8607806596    -1.2341534417
   11      O      -3.1000540827    -0.1825151395    -0.0078231972
   12      H      -3.3585374204    -0.8041681990    -0.6902150132
 ----------------------------------------------------------------

    8    -732.3970525406      6.32E-08 Convergence criterion met
 Total energy in the final basis set = -732.39705254
        MP2         total energy =                  -733.18295930 au

                    Orbital Energies (a.u.)
 --------------------------------------------------------------

 Alpha MOs
 -- Occupied --
-68.800 -68.800 -20.562 -20.562  -6.144  -6.144  -4.251  -4.251
 -4.250  -4.250  -4.250  -4.250  -1.343  -1.343  -0.789  -0.749
 -0.687  -0.625  -0.569  -0.566  -0.550  -0.541  -0.488  -0.477
 -0.457  -0.453

          Ground-State Mulliken Net Atomic Charges

     Atom                 Charge (a.u.)
  ----------------------------------------
      1 Si                    1.327447
      2 H                    -0.282415
      3 H                    -0.240790
      4 H                    -0.256928
      5 O                    -0.645406
      6 H                     0.099184
      7 Si                    1.321941
      8 H                    -0.280631
      9 H                    -0.240533
     10 H                    -0.255582
     11 O                    -0.646016
     12 H                     0.099729
  ----------------------------------------
  Sum of atomic charges =     0.000000

                    Cartesian Multipole Moments
 -----------------------------------------------------------------
    Charge (ESU x 10^10)
                 0.0000
    Dipole Moment (Debye)
         X       0.0017      Y      -0.0080      Z      -2.1361
       Tot       2.1362
    Quadrupole Moments (Debye-Ang)
        XX     -47.8158     XY       6.4945     YY     -40.4855
        XZ      -0.0457     YZ       0.0082     ZZ     -41.1539

 Total job time:  882.04s(wall), 2478.63s(cpu)
        *  Thank you very much for using Q-Chem.  Have a nice day.  *
