 Q-Chem 5.1, Q-Chem, Inc., Pleasanton, CA (2018)
 Q-Chem 5.1.2 for Intel X86 EM64T Linux

User input:
--------------------------------------------------------------
$molecule
0 1
--
0 1
O     2.477729308    -0.071662873    -0.195030085
H     2.720187232     0.518852264    -0.912611155
H     2.785696880     0.384663541     0.591916196
--
0 1
Si    -1.080974977    -0.018380460     0.037357986
H    -0.641230168     1.258038283    -0.571148552
H    -0.711315342    -1.169002394    -0.796249758
H    -0.516363755    -0.116034578     1.401384994
O    -2.746824507    -0.074612208     0.101926971
H    -3.173049045     0.605613887     0.625182106
$end

$rem
BASIS = aug-cc-pVTZ
JOB_TYPE  =  BSSE
METHOD  =  MP2
SCF_CONVERGENCE  =  7
SCF_MAX_CYCLES  =  200
$end

--------------------------------------------------------------

             Standard Nuclear Orientation (Angstroms)
    I     Atom           X                Y                Z
 ----------------------------------------------------------------
    1      O      -2.9509887843     0.0465237909     0.0855184853
    2      H      -3.2448695200     0.4184067807    -0.7497980529
    3      H      -3.2103094825    -0.8765237625     0.0298564663
    4      Si      0.6147412326     0.0121539494     0.0106347076
    5      H       0.1255760211    -0.0251203227    -1.3865870128
    6      H       0.2005195226     1.2434754802     0.6945562050
    7      H       0.1417669322    -1.2003966055     0.7141319004
    8      O       2.2816373940     0.0712819671     0.0292595419
    9      H       2.7357503932    -0.6724429258    -0.3692696303
 ----------------------------------------------------------------

    7    -442.2701916500      8.08E-08 Convergence criterion met
 Total energy in the final basis set = -442.27019165
        MP2         total energy =                  -442.92580100 au

                    Orbital Energies (a.u.)
 --------------------------------------------------------------

 Alpha MOs
 -- Occupied --
-68.787 -20.575 -20.551  -6.132  -4.239  -4.238  -4.238  -1.360
 -1.331  -0.748  -0.722  -0.640  -0.593  -0.544  -0.543  -0.517
 -0.468  -0.450

          Ground-State Mulliken Net Atomic Charges

     Atom                 Charge (a.u.)
  ----------------------------------------
      1 O                    -0.444902
      2 H                     0.219881
      3 H                     0.217841
      4 Si                    1.038538
      5 H                    -0.202420
      6 H                    -0.138092
      7 H                    -0.196120
      8 O                    -0.599778
      9 H                     0.105052
  ----------------------------------------
  Sum of atomic charges =    -0.000000

                    Cartesian Multipole Moments
 -----------------------------------------------------------------
    Charge (ESU x 10^10)
                -0.0000
    Dipole Moment (Debye)
         X      -1.4820      Y      -2.0890      Z      -2.0495
       Tot       3.2803
    Quadrupole Moments (Debye-Ang)
        XX     -22.9600     XY      -1.0531     YY     -25.5829
        XZ       2.8622     YZ      -0.2418     ZZ     -27.5764

 Total job time:  205.73s(wall), 411.96s(cpu)
        *  Thank you very much for using Q-Chem.  Have a nice day.  *
