 Q-Chem 5.1, Q-Chem, Inc., Pleasanton, CA (2018)
 Q-Chem 5.1.2 for Intel X86 EM64T Linux

User input:
--------------------------------------------------------------
$molecule
0 1
--
0 1
Si     1.877277124    -0.264555006    -0.002147324
H     1.013054241     0.893525003     0.332506176
H     1.752218881    -1.299809326     1.036281626
H     1.434006711    -0.793004013    -1.311922261
O     3.481273335     0.161191906    -0.019552128
H     3.741996224     0.827557153    -0.657431446
--
0 1
Si    -2.603793419     0.282061079     0.044665778
H    -1.732691331    -0.906783538     0.211106605
H    -2.483837473     1.159432084     1.220132687
H    -2.164743089     0.994146517    -1.176555965
O    -4.205336784    -0.146088875    -0.033328860
H    -4.463463694    -0.712986609    -0.761972950
$end

$rem
BASIS = aug-cc-pVTZ
JOB_TYPE  =  BSSE
METHOD  =  MP2
SCF_CONVERGENCE  =  7
SCF_MAX_CYCLES  =  200
$end

--------------------------------------------------------------

             Standard Nuclear Orientation (Angstroms)
    I     Atom           X                Y                Z
 ----------------------------------------------------------------
    1      Si      2.2445130001    -0.2331666981     0.0399192926
    2      H       1.3593508188     0.9320846173     0.2822016661
    3      H       2.1348704710    -1.1863660615     1.1557666141
    4      H       1.8139057354    -0.8698243044    -1.2251901389
    5      O       3.8408736004     0.2180938975    -0.0087008037
    6      H       4.0915671895     0.8371945055    -0.6962880732
    7      Si     -2.2455209601     0.2364789361     0.0385637903
    8      H      -1.3542333301    -0.9202573446     0.2982567968
    9      H      -2.1439220858     1.2047827163     1.1421747822
   10      H      -1.8158243487     0.8588208699    -1.2339395490
   11      O      -3.8391416311    -0.2245702057    -0.0077346140
   12      H      -4.0854587638    -0.8509958629    -0.6902619164
 ----------------------------------------------------------------

    7    -732.4175007791      9.92E-08 Convergence criterion met
 Total energy in the final basis set = -732.41750078
        MP2         total energy =                  -733.18991056 au

                    Orbital Energies (a.u.)
 --------------------------------------------------------------

 Alpha MOs
 -- Occupied --
-68.798 -68.798 -20.564 -20.564  -6.143  -6.143  -4.250  -4.249
 -4.249  -4.249  -4.249  -4.249  -1.344  -1.344  -0.761  -0.759
 -0.655  -0.650  -0.558  -0.556  -0.554  -0.554  -0.479  -0.476
 -0.460  -0.460

          Ground-State Mulliken Net Atomic Charges

     Atom                 Charge (a.u.)
  ----------------------------------------
      1 Si                    1.081757
      2 H                    -0.222492
      3 H                    -0.169806
      4 H                    -0.214462
      5 O                    -0.592081
      6 H                     0.117080
      7 Si                    1.082848
      8 H                    -0.222710
      9 H                    -0.170709
     10 H                    -0.214674
     11 O                    -0.592072
     12 H                     0.117322
  ----------------------------------------
  Sum of atomic charges =    -0.000000

                    Cartesian Multipole Moments
 -----------------------------------------------------------------
    Charge (ESU x 10^10)
                 0.0000
    Dipole Moment (Debye)
         X       0.0052      Y      -0.0071      Z      -2.1855
       Tot       2.1856
    Quadrupole Moments (Debye-Ang)
        XX     -48.4689     XY       7.4174     YY     -40.6813
        XZ      -0.0440     YZ       0.0102     ZZ     -41.2666

 Total job time:  653.85s(wall), 1805.36s(cpu)
        *  Thank you very much for using Q-Chem.  Have a nice day.  *
