 Q-Chem 5.1, Q-Chem, Inc., Pleasanton, CA (2018)
 Q-Chem 5.1.2 for Intel X86 EM64T Linux

User input:
--------------------------------------------------------------
$molecule
0 1
--
0 1
O     2.477729308    -0.071662873    -0.195030085
H     2.720187232     0.518852264    -0.912611155
H     2.785696880     0.384663541     0.591916196
--
0 1
Si    -0.306635128    -0.016457975    -0.011178180
H     0.133109682     1.259960769    -0.619684718
H     0.063024508    -1.167079908    -0.844785924
H     0.257976095    -0.114112092     1.352848828
O    -1.972484657    -0.072689722     0.053390805
H    -2.398709195     0.607536373     0.576645940
$end

$rem
BASIS = aug-cc-pVTZ
JOB_TYPE  =  BSSE
METHOD  =  MP2
SCF_CONVERGENCE  =  7
SCF_MAX_CYCLES  =  200
$end

--------------------------------------------------------------

             Standard Nuclear Orientation (Angstroms)
    I     Atom           X                Y                Z
 ----------------------------------------------------------------
    1      O      -2.3906101003     0.0449883777     0.0841573064
    2      H      -2.6855704005     0.4161218558    -0.7511120673
    3      H      -2.6492979694    -0.8782867350     0.0293310044
    4      Si      0.3992308775     0.0123857257     0.0116397087
    5      H      -0.0912499897    -0.0261401429    -1.3850867466
    6      H      -0.0152481227     1.2438338011     0.6951773784
    7      H      -0.0721651357    -1.2000683105     0.7163615312
    8      O       2.0660997641     0.0727636616     0.0286231205
    9      H       2.5203820224    -0.6708769422    -0.3698704373
 ----------------------------------------------------------------

    9    -442.2679894806      2.62E-08 Convergence criterion met
 Total energy in the final basis set = -442.26798948
        MP2         total energy =                  -442.92685466 au

                    Orbital Energies (a.u.)
 --------------------------------------------------------------

 Alpha MOs
 -- Occupied --
-68.782 -20.583 -20.545  -6.126  -4.232  -4.232  -4.232  -1.370
 -1.326  -0.743  -0.732  -0.642  -0.603  -0.546  -0.537  -0.514
 -0.461  -0.445

          Ground-State Mulliken Net Atomic Charges

     Atom                 Charge (a.u.)
  ----------------------------------------
      1 O                    -0.454574
      2 H                     0.220117
      3 H                     0.210999
      4 Si                    1.147995
      5 H                    -0.220442
      6 H                    -0.141294
      7 H                    -0.212597
      8 O                    -0.651444
      9 H                     0.101240
  ----------------------------------------
  Sum of atomic charges =    -0.000000

                    Cartesian Multipole Moments
 -----------------------------------------------------------------
    Charge (ESU x 10^10)
                 0.0000
    Dipole Moment (Debye)
         X      -1.8359      Y      -2.0591      Z      -2.0041
       Tot       3.4098
    Quadrupole Moments (Debye-Ang)
        XX     -23.5633     XY      -1.3192     YY     -25.7597
        XZ       2.1587     YZ      -0.2194     ZZ     -27.7103

 Total job time:  259.88s(wall), 549.30s(cpu)
        *  Thank you very much for using Q-Chem.  Have a nice day.  *
