 Q-Chem 5.1, Q-Chem, Inc., Pleasanton, CA (2018)
 Q-Chem 5.1.2 for Intel X86 EM64T Linux

User input:
--------------------------------------------------------------
$molecule
0 1
--
0 1
O     2.211620313     0.478466174    -0.303678005
H     2.668387860     1.019102152     0.345793294
H     2.839786115    -0.215073049    -0.521895639
--
0 1
Si    -1.211761172     0.090311118    -0.064226905
H    -1.317512094     1.567592755     0.008843945
H    -2.336063955    -0.510492496     0.679072232
H    -1.320454358    -0.290467710    -1.493666658
O     0.171072224    -0.472175997     0.637851131
H     1.003242994    -0.122399913     0.282336932
$end

$rem
BASIS = aug-cc-pVTZ
JOB_TYPE  =  BSSE
METHOD  =  MP2
SCF_CONVERGENCE  =  7
SCF_MAX_CYCLES  =  200
$end

--------------------------------------------------------------

             Standard Nuclear Orientation (Angstroms)
    I     Atom           X                Y                Z
 ----------------------------------------------------------------
    1      O      -2.1531744587     0.3017186229     0.0186125057
    2      H      -2.6291534734     0.1527849887    -0.8023622631
    3      H      -2.7204332204    -0.0760769326     0.6958834116
    4      Si      1.2992162735     0.2103998222     0.0044323337
    5      H       1.2639271742     1.1743845428    -1.1217877956
    6      H       2.5106214498    -0.6239441942    -0.1133933799
    7      H       1.3766622310     0.9985254357     1.2586112974
    8      O       0.0125469100    -0.8218642293    -0.0166958773
    9      H      -0.8656316010    -0.4101065007     0.0056630309
 ----------------------------------------------------------------

    9    -442.2645521320      4.10E-08 Convergence criterion met
 Total energy in the final basis set = -442.26455213
        MP2         total energy =                  -442.92567299 au

                    Orbital Energies (a.u.)
 --------------------------------------------------------------

 Alpha MOs
 -- Occupied --
-68.771 -20.617 -20.511  -6.115  -4.222  -4.222  -4.222  -1.416
 -1.300  -0.770  -0.748  -0.672  -0.610  -0.543  -0.519  -0.518
 -0.447  -0.430

          Ground-State Mulliken Net Atomic Charges

     Atom                 Charge (a.u.)
  ----------------------------------------
      1 O                    -0.251807
      2 H                     0.193556
      3 H                     0.194671
      4 Si                    1.218228
      5 H                    -0.292680
      6 H                    -0.292498
      7 H                    -0.289232
      8 O                    -0.531694
      9 H                     0.051457
  ----------------------------------------
  Sum of atomic charges =    -0.000000

                    Cartesian Multipole Moments
 -----------------------------------------------------------------
    Charge (ESU x 10^10)
                -0.0000
    Dipole Moment (Debye)
         X      -4.0165      Y       0.5282      Z      -0.1765
       Tot       4.0550
    Quadrupole Moments (Debye-Ang)
        XX     -16.3436     XY       1.9000     YY     -31.7284
        XZ       0.4779     YZ      -0.5368     ZZ     -26.4188

 Total job time:  252.07s(wall), 525.90s(cpu)
        *  Thank you very much for using Q-Chem.  Have a nice day.  *
