 Q-Chem 5.1, Q-Chem, Inc., Pleasanton, CA (2018)
 Q-Chem 5.1.2 for Intel X86 EM64T Linux

User input:
--------------------------------------------------------------
$molecule
0 1
--
0 1
Si    -1.640187497     0.014756195    -0.076542663
H    -1.249232765     0.430015437    -1.441631202
H    -1.476279169    -1.439058300     0.106937392
H    -0.831012870     0.762824413     0.910049803
O    -3.267604738     0.280116950     0.176348953
H    -3.569749209     1.178548253     0.032578653
--
0 1
Si     4.037604053    -0.001756082    -0.062859111
H     4.414015338    -0.273190125     1.341481800
H     3.639401231     1.406873165    -0.222818159
H     5.202736741    -0.296174700    -0.924323686
O     2.706665432    -0.893636922    -0.515787498
H     2.737600612    -1.837139616    -0.344125068
$end

$rem
BASIS = aug-cc-pVTZ
JOB_TYPE  =  BSSE
METHOD  =  MP2
SCF_CONVERGENCE  =  7
SCF_MAX_CYCLES  =  200
$end

--------------------------------------------------------------

             Standard Nuclear Orientation (Angstroms)
    I     Atom           X                Y                Z
 ----------------------------------------------------------------
    1      Si     -2.3714395739    -0.0612557255    -0.0287755565
    2      H      -1.9676123355    -0.0995742836    -1.4515221290
    3      H      -2.1185407901    -1.3543090089     0.6331631626
    4      H      -1.6428314592     1.0295718708     0.6545689395
    5      O      -4.0195697533     0.1561785403     0.1099566600
    6      H      -4.3752768583     0.9307233800    -0.3290111446
    7      Si      3.2923366951     0.3342493524     0.0259134574
    8      H       3.6433213942     0.5757793450     1.4422496792
    9      H       2.8079931975     1.5759361960    -0.6001966755
   10      H       4.4995521232    -0.1471070116    -0.6792565066
   11      O       2.0366765237    -0.7505971748    -0.1098021120
   12      H       2.1239808669    -1.5775821884     0.3688376771
 ----------------------------------------------------------------

    7    -732.4175508421      7.69E-08 Convergence criterion met
 Total energy in the final basis set = -732.41755084
        MP2         total energy =                  -733.18923026 au

                    Orbital Energies (a.u.)
 --------------------------------------------------------------

 Alpha MOs
 -- Occupied --
-68.799 -68.792 -20.564 -20.555  -6.144  -6.136  -4.250  -4.250
 -4.250  -4.243  -4.243  -4.242  -1.344  -1.335  -0.760  -0.751
 -0.653  -0.644  -0.557  -0.555  -0.547  -0.547  -0.478  -0.471
 -0.461  -0.454

          Ground-State Mulliken Net Atomic Charges

     Atom                 Charge (a.u.)
  ----------------------------------------
      1 Si                    1.017730
      2 H                    -0.206381
      3 H                    -0.164145
      4 H                    -0.197749
      5 O                    -0.559241
      6 H                     0.108245
      7 Si                    1.043819
      8 H                    -0.207926
      9 H                    -0.189102
     10 H                    -0.215740
     11 O                    -0.547101
     12 H                     0.117591
  ----------------------------------------
  Sum of atomic charges =     0.000000

                    Cartesian Multipole Moments
 -----------------------------------------------------------------
    Charge (ESU x 10^10)
                 0.0000
    Dipole Moment (Debye)
         X       1.3617      Y       0.3721      Z       0.0279
       Tot       1.4119
    Quadrupole Moments (Debye-Ang)
        XX     -42.3662     XY      -7.6463     YY     -38.1073
        XZ       5.5859     YZ      -2.5562     ZZ     -43.1983

 Total job time:  675.17s(wall), 1851.00s(cpu)
        *  Thank you very much for using Q-Chem.  Have a nice day.  *
