 Q-Chem 5.1, Q-Chem, Inc., Pleasanton, CA (2018)
 Q-Chem 5.1.2 for Intel X86 EM64T Linux

User input:
--------------------------------------------------------------
$molecule
0 1
--
0 1
O     2.477729308    -0.071662873    -0.195030085
H     2.720187232     0.518852264    -0.912611155
H     2.785696880     0.384663541     0.591916196
--
0 1
Si    -0.608702540    -0.017207930     0.007755618
H    -0.168957730     1.259210814    -0.600750921
H    -0.239042904    -1.167829863    -0.825852127
H    -0.044091317    -0.114862047     1.371782625
O    -2.274552070    -0.073439677     0.072324603
H    -2.700776608     0.606786418     0.595579738
$end

$rem
BASIS = aug-cc-pVTZ
JOB_TYPE  =  BSSE
METHOD  =  MP2
SCF_CONVERGENCE  =  7
SCF_MAX_CYCLES  =  200
$end

--------------------------------------------------------------

             Standard Nuclear Orientation (Angstroms)
    I     Atom           X                Y                Z
 ----------------------------------------------------------------
    1      O      -2.6092105521     0.0456396737     0.0847631946
    2      H      -2.9037107033     0.4170997021    -0.7505233862
    3      H      -2.8681982867    -0.8775305197     0.0295869486
    4      Si      0.4833009581     0.0123047079     0.0112086276
    5      H      -0.0066400581    -0.0256760006    -1.3857222162
    6      H       0.0689802524     1.2437139387     0.6949122262
    7      H       0.0112035402    -1.2001737803     0.7154186667
    8      O       2.1501839194     0.0720972679     0.0288682669
    9      H       2.6043649041    -0.6715947835    -0.3696447181
 ----------------------------------------------------------------

    8    -442.2700459910      6.66E-08 Convergence criterion met
 Total energy in the final basis set = -442.27004599
        MP2         total energy =                  -442.92714561 au

                    Orbital Energies (a.u.)
 --------------------------------------------------------------

 Alpha MOs
 -- Occupied --
-68.784 -20.578 -20.548  -6.129  -4.235  -4.235  -4.235  -1.364
 -1.329  -0.745  -0.726  -0.640  -0.598  -0.543  -0.540  -0.518
 -0.464  -0.447

          Ground-State Mulliken Net Atomic Charges

     Atom                 Charge (a.u.)
  ----------------------------------------
      1 O                    -0.458233
      2 H                     0.220493
      3 H                     0.215441
      4 Si                    1.088257
      5 H                    -0.206681
      6 H                    -0.135790
      7 H                    -0.199441
      8 O                    -0.625207
      9 H                     0.101162
  ----------------------------------------
  Sum of atomic charges =     0.000000

                    Cartesian Multipole Moments
 -----------------------------------------------------------------
    Charge (ESU x 10^10)
                 0.0000
    Dipole Moment (Debye)
         X      -1.6440      Y      -2.0722      Z      -2.0239
       Tot       3.3306
    Quadrupole Moments (Debye-Ang)
        XX     -23.3769     XY      -1.2141     YY     -25.6650
        XZ       2.4312     YZ      -0.2303     ZZ     -27.6386

 Total job time:  221.98s(wall), 456.90s(cpu)
        *  Thank you very much for using Q-Chem.  Have a nice day.  *
