 Q-Chem 5.1, Q-Chem, Inc., Pleasanton, CA (2018)
 Q-Chem 5.1.2 for Intel X86 EM64T Linux

User input:
--------------------------------------------------------------
$molecule
0 1
--
0 1
Si     2.376764240     0.137270735     0.463705189
H     2.850818527    -0.458840989     1.729658577
H     1.788718359     1.464378485     0.699128015
H     3.512521005     0.224749011    -0.476920657
O     1.131720522    -0.774155642    -0.187458262
H     1.331328116    -1.685531717    -0.412871535
--
0 1
Si    -2.419417425     0.166495232    -0.022079234
H    -2.725753909    -1.203001290     0.458399327
H    -3.623626766     0.737238390    -0.654509065
H    -2.058418403     0.979312684     1.164866711
O    -1.232499427     0.176660481    -1.169594956
H    -0.368766657    -0.147954067    -0.875588780
$end

$rem
BASIS = aug-cc-pVTZ
JOB_TYPE  =  BSSE
METHOD  =  MP2
SCF_CONVERGENCE  =  7
SCF_MAX_CYCLES  =  200
$end

--------------------------------------------------------------

             Standard Nuclear Orientation (Angstroms)
    I     Atom           X                Y                Z
 ----------------------------------------------------------------
    1      Si     -2.4278330732     0.3084782805     0.1351276806
    2      H      -3.0930990769     1.0717893181    -0.9407403594
    3      H      -1.8113038045     1.2154510740     1.1147852014
    4      H      -3.4242473517    -0.5679344041     0.7843058163
    5      O      -1.1542937993    -0.5889807382    -0.4792913684
    6      H      -1.3671000575    -1.2485425082    -1.1433338771
    7      Si      2.3861451319     0.3377180675    -0.1197409455
    8      H       2.5588389395     0.1123356563    -1.5756262535
    9      H       3.6897129016     0.1779308184     0.5518351747
   10      H       1.9125292170     1.7320882486     0.0570440762
   11      O       1.3624973924    -0.7606279595     0.5668821745
   12      H       0.4526716660    -0.7429974935     0.2355894812
 ----------------------------------------------------------------

    9    -732.4218200376      5.68E-08 Convergence criterion met
 Total energy in the final basis set = -732.42182004
        MP2         total energy =                  -733.19803297 au

                    Orbital Energies (a.u.)
 --------------------------------------------------------------

 Alpha MOs
 -- Occupied --
-68.816 -68.778 -20.591 -20.530  -6.160  -6.123  -4.267  -4.267
 -4.267  -4.230  -4.230  -4.230  -1.375  -1.313  -0.783  -0.740
 -0.681  -0.636  -0.581  -0.571  -0.530  -0.529  -0.495  -0.480
 -0.457  -0.438

          Ground-State Mulliken Net Atomic Charges

     Atom                 Charge (a.u.)
  ----------------------------------------
      1 Si                    0.995031
      2 H                    -0.207239
      3 H                    -0.163296
      4 H                    -0.210944
      5 O                    -0.480135
      6 H                     0.086213
      7 Si                    1.177342
      8 H                    -0.269357
      9 H                    -0.275168
     10 H                    -0.263041
     11 O                    -0.573298
     12 H                     0.183891
  ----------------------------------------
  Sum of atomic charges =     0.000000

                    Cartesian Multipole Moments
 -----------------------------------------------------------------
    Charge (ESU x 10^10)
                 0.0000
    Dipole Moment (Debye)
         X      -3.1985      Y      -0.0230      Z      -1.6403
       Tot       3.5947
    Quadrupole Moments (Debye-Ang)
        XX     -41.0372     XY       2.8422     YY     -42.2613
        XZ       0.1768     YZ       3.5219     ZZ     -42.4415

 Total job time:  828.16s(wall), 2372.69s(cpu)
        *  Thank you very much for using Q-Chem.  Have a nice day.  *
