 Q-Chem 5.1, Q-Chem, Inc., Pleasanton, CA (2018)
 Q-Chem 5.1.2 for Intel X86 EM64T Linux

User input:
--------------------------------------------------------------
$molecule
0 1
--
0 1
O     2.477729308    -0.071662873    -0.195030085
H     2.720187232     0.518852264    -0.912611155
H     2.785696880     0.384663541     0.591916196
--
0 1
Si    -1.992793366    -0.020644270     0.094511404
H    -1.553048556     1.255774474    -0.513995134
H    -1.623133730    -1.171266203    -0.739096340
H    -1.428182143    -0.118298387     1.458538412
O    -3.658642896    -0.076876017     0.159080389
H    -4.084867434     0.603350078     0.682335524
$end

$rem
BASIS = aug-cc-pVTZ
JOB_TYPE  =  BSSE
METHOD  =  MP2
SCF_CONVERGENCE  =  7
SCF_MAX_CYCLES  =  200
$end

--------------------------------------------------------------

             Standard Nuclear Orientation (Angstroms)
    I     Atom           X                Y                Z
 ----------------------------------------------------------------
    1      O      -3.6108641690     0.0478616972     0.0865305528
    2      H      -3.9038177051     0.4203455029    -0.7488439765
    3      H      -3.8705451169    -0.8750386753     0.0301126610
    4      Si      0.8685134329     0.0118468642     0.0097882449
    5      H       0.3806054759    -0.0244233350    -1.3878994215
    6      H       0.4542169462     1.2429680739     0.6940250008
    7      H       0.3943580546    -1.2008881953     0.7121714671
    8      O       2.5354180947     0.0702211080     0.0299653544
    9      H       2.9895628793    -0.6734819118    -0.3685684163
 ----------------------------------------------------------------

    7    -442.2692555293      4.18E-08 Convergence criterion met
 Total energy in the final basis set = -442.26925553
        MP2         total energy =                  -442.92384338 au

                    Orbital Energies (a.u.)
 --------------------------------------------------------------

 Alpha MOs
 -- Occupied --
-68.791 -20.571 -20.554  -6.136  -4.242  -4.242  -4.242  -1.356
 -1.334  -0.751  -0.718  -0.643  -0.589  -0.546  -0.546  -0.514
 -0.472  -0.453

          Ground-State Mulliken Net Atomic Charges

     Atom                 Charge (a.u.)
  ----------------------------------------
      1 O                    -0.445233
      2 H                     0.223149
      3 H                     0.222608
      4 Si                    1.037794
      5 H                    -0.216854
      6 H                    -0.152178
      7 H                    -0.209980
      8 O                    -0.570833
      9 H                     0.111528
  ----------------------------------------
  Sum of atomic charges =     0.000000

                    Cartesian Multipole Moments
 -----------------------------------------------------------------
    Charge (ESU x 10^10)
                 0.0000
    Dipole Moment (Debye)
         X      -1.3490      Y      -2.1106      Z      -2.0835
       Tot       3.2581
    Quadrupole Moments (Debye-Ang)
        XX     -22.0061     XY      -0.7477     YY     -25.5130
        XZ       3.6997     YZ      -0.2531     ZZ     -27.5210

 Total job time:  180.64s(wall), 363.45s(cpu)
        *  Thank you very much for using Q-Chem.  Have a nice day.  *
