 Q-Chem 5.1, Q-Chem, Inc., Pleasanton, CA (2018)
 Q-Chem 5.1.2 for Intel X86 EM64T Linux

User input:
--------------------------------------------------------------
$molecule
0 1
Si    1.877277124    -0.264555006    -0.002147324
H     1.013054241     0.893525003     0.332506176
H     1.752218881    -1.299809326     1.036281626
H     1.434006711    -0.793004013    -1.311922261
O     3.481273335     0.161191906    -0.019552128
H     3.741996224     0.827557153    -0.657431446
Si   -2.258364289     0.267421125     0.043132739
H    -1.387262201    -0.921423492     0.209573565
H    -2.138408343     1.144792129     1.218599647
H    -1.819313959     0.979506563    -1.178089004
O    -3.859907654    -0.160728829    -0.034861900
H    -4.118034563    -0.727626564    -0.763505990
$end

$rem
BASIS = aug-cc-pVTZ
JOB_TYPE  =  SP
METHOD  =  MP2
SCF_MAX_CYCLES  =  200
$end

--------------------------------------------------------------

    6    -732.4172235782      7.59e-06  Convergence criterion met
 Total energy in the final basis set =     -732.4172235782
        MP2         total energy =                  -733.19071320 au
 Total job time:  265.11s(wall), 1571.83s(cpu)
        *  Thank you very much for using Q-Chem.  Have a nice day.  *
 Q-Chem 5.1, Q-Chem, Inc., Pleasanton, CA (2018)
 Q-Chem 5.1.2 for Intel X86 EM64T Linux

User input:
--------------------------------------------------------------

$molecule
0 1
Si    1.877277124    -0.264555006    -0.002147324
H     1.013054241     0.893525003     0.332506176
H     1.752218881    -1.299809326     1.036281626
H     1.434006711    -0.793004013    -1.311922261
O     3.481273335     0.161191906    -0.019552128
H     3.741996224     0.827557153    -0.657431446
@Si   -2.258364289     0.267421125     0.043132739
@H    -1.387262201    -0.921423492     0.209573565
@H    -2.138408343     1.144792129     1.218599647
@H    -1.819313959     0.979506563    -1.178089004
@O    -3.859907654    -0.160728829    -0.034861900
@H    -4.118034563    -0.727626564    -0.763505990
$end

$rem
BASIS = aug-cc-pVTZ
JOB_TYPE  =  SP
METHOD  =  MP2
SCF_MAX_CYCLES  =  200
$end

--------------------------------------------------------------

    6    -366.2088573219      5.32e-06  Convergence criterion met
 Total energy in the final basis set =     -366.2088573219
        MP2         total energy =                  -366.59444099 au
 Total job time:  149.99s(wall), 894.72s(cpu)
        *  Thank you very much for using Q-Chem.  Have a nice day.  *
 Q-Chem 5.1, Q-Chem, Inc., Pleasanton, CA (2018)
 Q-Chem 5.1.2 for Intel X86 EM64T Linux

User input:
--------------------------------------------------------------

$molecule
0 1
@Si    1.877277124    -0.264555006    -0.002147324
@H     1.013054241     0.893525003     0.332506176
@H     1.752218881    -1.299809326     1.036281626
@H     1.434006711    -0.793004013    -1.311922261
@O     3.481273335     0.161191906    -0.019552128
@H     3.741996224     0.827557153    -0.657431446
Si   -2.258364289     0.267421125     0.043132739
H    -1.387262201    -0.921423492     0.209573565
H    -2.138408343     1.144792129     1.218599647
H    -1.819313959     0.979506563    -1.178089004
O    -3.859907654    -0.160728829    -0.034861900
H    -4.118034563    -0.727626564    -0.763505990
$end

$rem
BASIS = aug-cc-pVTZ
JOB_TYPE  =  SP
METHOD  =  MP2
SCF_MAX_CYCLES  =  200
$end

--------------------------------------------------------------

             Standard Nuclear Orientation (Angstroms)
    I     Atom           X                Y                Z
 ----------------------------------------------------------------
    1      GH      1.8772771240    -0.2645550060    -0.0021473240
    2      GH      1.0130542410     0.8935250030     0.3325061760
    3      GH      1.7522188810    -1.2998093260     1.0362816260
    4      GH      1.4340067110    -0.7930040130    -1.3119222610
    5      GH      3.4812733350     0.1611919060    -0.0195521280
    6      GH      3.7419962240     0.8275571530    -0.6574314460
    7      Si     -2.2583642890     0.2674211250     0.0431327390
    8      H      -1.3872622010    -0.9214234920     0.2095735650
    9      H      -2.1384083430     1.1447921290     1.2185996470
   10      H      -1.8193139590     0.9795065630    -1.1780890040
   11      O      -3.8599076540    -0.1607288290    -0.0348619000
   12      H      -4.1180345630    -0.7276265640    -0.7635059900
 ----------------------------------------------------------------

    6    -366.2088561307      5.32e-06  Convergence criterion met
 Total energy in the final basis set =     -366.2088561307
        MP2         total energy =                  -366.59443984 au

                    Orbital Energies (a.u.)
 --------------------------------------------------------------

 Alpha MOs
 -- Occupied --
-68.797 -20.562  -6.141  -4.248  -4.248  -4.248  -1.343  -0.759
 -0.651  -0.555  -0.553  -0.476  -0.458

          Ground-State Mulliken Net Atomic Charges

     Atom                 Charge (a.u.)
  ----------------------------------------
      1 GH                    0.016556
      2 GH                   -0.001065
      3 GH                    0.000750
      4 GH                   -0.002318
      5 GH                   -0.001512
      6 GH                   -0.000036
      7 Si                    1.103527
      8 H                    -0.211095
      9 H                    -0.183656
     10 H                    -0.219795
     11 O                    -0.617897
     12 H                     0.116540
  ----------------------------------------
  Sum of atomic charges =    -0.000000

                    Cartesian Multipole Moments
 -----------------------------------------------------------------
    Charge (ESU x 10^10)
                 0.0000
    Dipole Moment (Debye)
         X       0.3892      Y      -0.6859      Z      -1.1566
       Tot       1.3999
    Quadrupole Moments (Debye-Ang)
        XX     -24.2258     XY       3.4173     YY     -20.6858
        XZ       5.3108     YZ       1.4405     ZZ     -20.4039

 Total job time:  149.45s(wall), 891.35s(cpu)
        *  Thank you very much for using Q-Chem.  Have a nice day.  *
