 Q-Chem 5.1, Q-Chem, Inc., Pleasanton, CA (2018)
 Q-Chem 5.1.2 for Intel X86 EM64T Linux

User input:
--------------------------------------------------------------
$molecule
0 1
--
0 1
Si    -1.640187497     0.014756195    -0.076542663
H    -1.249232765     0.430015437    -1.441631202
H    -1.476279169    -1.439058300     0.106937392
H    -0.831012870     0.762824413     0.910049803
O    -3.267604738     0.280116950     0.176348953
H    -3.569749209     1.178548253     0.032578653
--
0 1
Si     2.274735425     0.132446496     0.003292434
H     2.651146710    -0.138987547     1.407633345
H     1.876532603     1.541075743    -0.156666615
H     3.439868113    -0.161972122    -0.858172141
O     0.943796804    -0.759434344    -0.449635953
H     0.974731984    -1.702937038    -0.277973523
$end

$rem
BASIS = aug-cc-pVTZ
JOB_TYPE  =  BSSE
METHOD  =  MP2
SCF_CONVERGENCE  =  8
SCF_MAX_CYCLES  =  200
$end

--------------------------------------------------------------

             Standard Nuclear Orientation (Angstroms)
    I     Atom           X                Y                Z
 ----------------------------------------------------------------
    1      Si     -1.4877115132    -0.0542968742    -0.0300144576
    2      H      -1.0860998309    -0.0964221666    -1.4532804469
    3      H      -1.2496393293    -1.3508038935     0.6306659799
    4      H      -0.7451608812     1.0271442745     0.6532409343
    5      O      -3.1329274852     0.1829123684     0.1108881919
    6      H      -3.4797897902     0.9620229551    -0.3270766718
    7      Si      2.4118329656     0.3161564397     0.0262290792
    8      H       2.7674230680     0.5523716954     1.4423128767
    9      H       1.9417564034     1.5640677451    -0.5983781091
   10      H       3.6122944942    -0.1792092257    -0.6807664604
   11      O       1.1430045691    -0.7533519489    -0.1087504617
   12      H       1.2208988612    -1.5816886578     0.3691753534
 ----------------------------------------------------------------

   10    -732.4145651337      4.84E-09 Convergence criterion met
 Total energy in the final basis set = -732.41456513
        MP2         total energy =                  -733.19224323 au

                    Orbital Energies (a.u.)
 --------------------------------------------------------------

 Alpha MOs
 -- Occupied --
-68.804 -68.782 -20.574 -20.546  -6.149  -6.126  -4.256  -4.256
 -4.255  -4.232  -4.232  -4.232  -1.357  -1.326  -0.770  -0.743
 -0.666  -0.638  -0.571  -0.568  -0.537  -0.526  -0.484  -0.470
 -0.460  -0.442

          Ground-State Mulliken Net Atomic Charges

     Atom                 Charge (a.u.)
  ----------------------------------------
      1 Si                    1.187865
      2 H                    -0.183543
      3 H                    -0.187261
      4 H                    -0.217810
      5 O                    -0.658548
      6 H                     0.102942
      7 Si                    1.045409
      8 H                    -0.204592
      9 H                    -0.177822
     10 H                    -0.257545
     11 O                    -0.534846
     12 H                     0.085751
  ----------------------------------------
  Sum of atomic charges =     0.000000

                    Cartesian Multipole Moments
 -----------------------------------------------------------------
    Charge (ESU x 10^10)
                 0.0000
    Dipole Moment (Debye)
         X       1.9258      Y       0.2752      Z      -0.0305
       Tot       1.9456
    Quadrupole Moments (Debye-Ang)
        XX     -43.6148     XY      -5.8935     YY     -38.1102
        XZ       4.1238     YZ      -2.4952     ZZ     -43.3161

 Total job time:  1058.95s(wall), 2858.89s(cpu)
        *  Thank you very much for using Q-Chem.  Have a nice day.  *
