 Q-Chem 5.1, Q-Chem, Inc., Pleasanton, CA (2018)
 Q-Chem 5.1.2 for Intel X86 EM64T Linux

User input:
--------------------------------------------------------------
$molecule
0 1
--
0 1
O     2.477729308    -0.071662873    -0.195030085
H     2.720187232     0.518852264    -0.912611155
H     2.785696880     0.384663541     0.591916196
--
0 1
Si    -0.767876925    -0.017603119     0.017732780
H    -0.328132115     1.258815625    -0.590773758
H    -0.398217290    -1.168225052    -0.815874964
H    -0.203265702    -0.115257236     1.381759788
O    -2.433726455    -0.073834866     0.082301765
H    -2.859950993     0.606391229     0.605556900
$end

$rem
BASIS = aug-cc-pVTZ
JOB_TYPE  =  BSSE
METHOD  =  MP2
SCF_CONVERGENCE  =  7
SCF_MAX_CYCLES  =  200
$end

--------------------------------------------------------------

             Standard Nuclear Orientation (Angstroms)
    I     Atom           X                Y                Z
 ----------------------------------------------------------------
    1      O      -2.7244029198     0.0459548811     0.0850409523
    2      H      -3.0186815784     0.4175682616    -0.7502554804
    3      H      -2.9835186992    -0.8771690940     0.0296928699
    4      Si      0.5276015430     0.0122560952     0.0110025899
    5      H       0.0379317025    -0.0254685240    -1.3860302713
    6      H       0.1133307340     1.2436384599     0.6947848051
    7      H       0.0551820158    -1.2002431868     0.7149607703
    8      O       2.1944899546     0.0717953467     0.0290003858
    9      H       2.6486379451    -0.6719130716    -0.3695196572
 ----------------------------------------------------------------

    8    -442.2703111841      5.21E-08 Convergence criterion met
 Total energy in the final basis set = -442.27031118
        MP2         total energy =                  -442.92677873 au

                    Orbital Energies (a.u.)
 --------------------------------------------------------------

 Alpha MOs
 -- Occupied --
-68.785 -20.577 -20.549  -6.130  -4.236  -4.236  -4.236  -1.362
 -1.330  -0.746  -0.724  -0.640  -0.596  -0.543  -0.541  -0.518
 -0.466  -0.448

          Ground-State Mulliken Net Atomic Charges

     Atom                 Charge (a.u.)
  ----------------------------------------
      1 O                    -0.453907
      2 H                     0.220161
      3 H                     0.216425
      4 Si                    1.068326
      5 H                    -0.203972
      6 H                    -0.136560
      7 H                    -0.197188
      8 O                    -0.615147
      9 H                     0.101862
  ----------------------------------------
  Sum of atomic charges =    -0.000000

                    Cartesian Multipole Moments
 -----------------------------------------------------------------
    Charge (ESU x 10^10)
                -0.0000
    Dipole Moment (Debye)
         X      -1.5760      Y      -2.0784      Z      -2.0333
       Tot       3.3072
    Quadrupole Moments (Debye-Ang)
        XX     -23.2473     XY      -1.1594     YY     -25.6311
        XZ       2.5760     YZ      -0.2349     ZZ     -27.6130

 Total job time:  218.40s(wall), 451.41s(cpu)
        *  Thank you very much for using Q-Chem.  Have a nice day.  *
