 Q-Chem 5.1, Q-Chem, Inc., Pleasanton, CA (2018)
 Q-Chem 5.1.2 for Intel X86 EM64T Linux

User input:
--------------------------------------------------------------
$molecule
0 1
--
0 1
Si    -1.640187497     0.014756195    -0.076542663
H    -1.249232765     0.430015437    -1.441631202
H    -1.476279169    -1.439058300     0.106937392
H    -0.831012870     0.762824413     0.910049803
O    -3.267604738     0.280116950     0.176348953
H    -3.569749209     1.178548253     0.032578653
--
0 1
Si     1.996215373     0.153649500     0.013743883
H     2.372626658    -0.117784544     1.418084794
H     1.598012551     1.562278746    -0.146215165
H     3.161348061    -0.140769119    -0.847720692
O     0.665276752    -0.738231341    -0.439184504
H     0.696211932    -1.681734035    -0.267522074
$end

$rem
BASIS = aug-cc-pVTZ
JOB_TYPE  =  BSSE
METHOD  =  MP2
SCF_CONVERGENCE  =  8
SCF_MAX_CYCLES  =  200
$end

--------------------------------------------------------------

             Standard Nuclear Orientation (Angstroms)
    I     Atom           X                Y                Z
 ----------------------------------------------------------------
    1      Si     -1.3481922845    -0.0530986854    -0.0303140929
    2      H      -0.9471019721    -0.0963672939    -1.4536928017
    3      H      -1.1143913680    -1.3505221792     0.6300924982
    4      H      -0.6017595809     1.0256792252     0.6529214217
    5      O      -2.9925484186     0.1897249799     0.1110611104
    6      H      -3.3368535609     0.9700915084    -0.3266854339
    7      Si      2.2732047997     0.3117899581     0.0263275827
    8      H       2.6299751480     0.5465532978     1.4423559663
    9      H       1.8072438094     1.5614073008    -0.5979524742
   10      H       3.4717752919    -0.1875715934    -0.6810651894
   11      O       1.0006826504    -0.7533412104    -0.1084913504
   12      H       1.0758631653    -1.5820182396     0.3692790759
 ----------------------------------------------------------------

   10    -732.4061930725      6.49E-09 Convergence criterion met
 Total energy in the final basis set = -732.40619307
        MP2         total energy =                  -733.18738197 au

                    Orbital Energies (a.u.)
 --------------------------------------------------------------

 Alpha MOs
 -- Occupied --
-68.807 -68.779 -20.579 -20.541  -6.152  -6.122  -4.259  -4.259
 -4.258  -4.229  -4.228  -4.228  -1.367  -1.322  -0.778  -0.744
 -0.676  -0.640  -0.578  -0.574  -0.532  -0.515  -0.488  -0.474
 -0.455  -0.437

          Ground-State Mulliken Net Atomic Charges

     Atom                 Charge (a.u.)
  ----------------------------------------
      1 Si                    1.242409
      2 H                    -0.195192
      3 H                    -0.213983
      4 H                    -0.233960
      5 O                    -0.670893
      6 H                     0.098657
      7 Si                    1.074515
      8 H                    -0.196245
      9 H                    -0.175252
     10 H                    -0.300477
     11 O                    -0.511061
     12 H                     0.081482
  ----------------------------------------
  Sum of atomic charges =     0.000000

                    Cartesian Multipole Moments
 -----------------------------------------------------------------
    Charge (ESU x 10^10)
                 0.0000
    Dipole Moment (Debye)
         X       2.2561      Y       0.2182      Z      -0.0503
       Tot       2.2672
    Quadrupole Moments (Debye-Ang)
        XX     -43.9556     XY      -5.6577     YY     -38.1108
        XZ       3.9084     YZ      -2.4341     ZZ     -43.3986

 Total job time:  1094.49s(wall), 2969.40s(cpu)
        *  Thank you very much for using Q-Chem.  Have a nice day.  *
