 Q-Chem 5.1, Q-Chem, Inc., Pleasanton, CA (2018)
 Q-Chem 5.1.2 for Intel X86 EM64T Linux

User input:
--------------------------------------------------------------
$molecule
0 1
--
0 1
Si    -1.640187497     0.014756195    -0.076542663
H    -1.249232765     0.430015437    -1.441631202
H    -1.476279169    -1.439058300     0.106937392
H    -0.831012870     0.762824413     0.910049803
O    -3.267604738     0.280116950     0.176348953
H    -3.569749209     1.178548253     0.032578653
--
0 1
Si     3.108014783     0.069011118    -0.027976326
H     3.484426068    -0.202422925     1.376364585
H     2.709811962     1.477640364    -0.187935375
H     4.273147471    -0.225407500    -0.889440902
O     1.777076162    -0.822869723    -0.480904714
H     1.808011342    -1.766372416    -0.309242284
$end

$rem
BASIS = aug-cc-pVTZ
JOB_TYPE  =  BSSE
METHOD  =  MP2
SCF_CONVERGENCE  =  7
SCF_MAX_CYCLES  =  200
$end

--------------------------------------------------------------

             Standard Nuclear Orientation (Angstroms)
    I     Atom           X                Y                Z
 ----------------------------------------------------------------
    1      Si     -1.9053324980    -0.0578064271    -0.0293169699
    2      H      -1.5024877931    -0.0976033003    -1.4523014788
    3      H      -1.6583462929    -1.3522963423     0.6320461152
    4      H      -1.1710567803     1.0292395368     0.6539871882
    5      O      -3.5523101389     0.1675797930     0.1104080391
    6      H      -3.9044967720     0.9439910264    -0.3281009789
    7      Si      2.8275424384     0.3263269274     0.0260326437
    8      H       3.1804837002     0.5656704628     1.4422538225
    9      H       2.3488848320     1.5705625186    -0.5993899543
   10      H       4.0320140400    -0.1606458611    -0.6799725851
   11      O       1.5665547181    -0.7523646932    -0.1093465602
   12      H       1.6501092677    -1.5799258438     0.3689666074
 ----------------------------------------------------------------

    7    -732.4184124161      5.40E-08 Convergence criterion met
 Total energy in the final basis set = -732.41841242
        MP2         total energy =                  -733.19141806 au

                    Orbital Energies (a.u.)
 --------------------------------------------------------------

 Alpha MOs
 -- Occupied --
-68.800 -68.788 -20.567 -20.552  -6.145  -6.133  -4.252  -4.252
 -4.251  -4.239  -4.239  -4.239  -1.347  -1.332  -0.763  -0.748
 -0.655  -0.641  -0.561  -0.558  -0.544  -0.542  -0.480  -0.468
 -0.463  -0.450

          Ground-State Mulliken Net Atomic Charges

     Atom                 Charge (a.u.)
  ----------------------------------------
      1 Si                    1.042085
      2 H                    -0.187173
      3 H                    -0.159435
      4 H                    -0.193797
      5 O                    -0.600445
      6 H                     0.099993
      7 Si                    1.023526
      8 H                    -0.208020
      9 H                    -0.183112
     10 H                    -0.208884
     11 O                    -0.527264
     12 H                     0.102526
  ----------------------------------------
  Sum of atomic charges =     0.000000

                    Cartesian Multipole Moments
 -----------------------------------------------------------------
    Charge (ESU x 10^10)
                 0.0000
    Dipole Moment (Debye)
         X       1.5061      Y       0.3518      Z       0.0065
       Tot       1.5467
    Quadrupole Moments (Debye-Ang)
        XX     -42.9080     XY      -6.7172     YY     -38.1060
        XZ       4.8103     YZ      -2.5481     ZZ     -43.2307

 Total job time:  712.41s(wall), 1979.62s(cpu)
        *  Thank you very much for using Q-Chem.  Have a nice day.  *
