 Q-Chem 5.1, Q-Chem, Inc., Pleasanton, CA (2018)
 Q-Chem 5.1.2 for Intel X86 EM64T Linux

User input:
--------------------------------------------------------------
$molecule
0 1
--
0 1
O     2.211620313     0.478466174    -0.303678005
H     2.668387860     1.019102152     0.345793294
H     2.839786115    -0.215073049    -0.521895639
--
0 1
Si    -1.402474905     0.054736664    -0.036108427
H    -1.508225828     1.532018300     0.036962423
H    -2.526777688    -0.546066951     0.707190709
H    -1.511168091    -0.326042165    -1.465548180
O    -0.019641509    -0.507750452     0.665969609
H     0.812529260    -0.157974368     0.310455410
$end

$rem
BASIS = aug-cc-pVTZ
JOB_TYPE  =  BSSE
METHOD  =  MP2
SCF_CONVERGENCE  =  7
SCF_MAX_CYCLES  =  200
$end

--------------------------------------------------------------

             Standard Nuclear Orientation (Angstroms)
    I     Atom           X                Y                Z
 ----------------------------------------------------------------
    1      O      -2.2974984830     0.2904738463     0.0183519288
    2      H      -2.7712690916     0.1350211212    -0.8026917251
    3      H      -2.8600592185    -0.0942506518     0.6956408950
    4      Si      1.3504836023     0.2207633142     0.0045110854
    5      H       1.3031441592     1.1836538782    -1.1222028880
    6      H       2.5725576729    -0.5979866929    -0.1125304838
    7      H       1.4173981181     1.0104438556     1.2583180175
    8      O       0.0772061413    -0.8279773936    -0.0164879705
    9      H      -0.8062033381    -0.4275395312     0.0053993217
 ----------------------------------------------------------------

    9    -442.2727480057      2.26E-08 Convergence criterion met
 Total energy in the final basis set = -442.27274801
        MP2         total energy =                  -442.93193310 au

                    Orbital Energies (a.u.)
 --------------------------------------------------------------

 Alpha MOs
 -- Occupied --
-68.775 -20.609 -20.524  -6.119  -4.226  -4.226  -4.226  -1.401
 -1.309  -0.759  -0.741  -0.661  -0.607  -0.547  -0.527  -0.525
 -0.452  -0.435

          Ground-State Mulliken Net Atomic Charges

     Atom                 Charge (a.u.)
  ----------------------------------------
      1 O                    -0.348151
      2 H                     0.206759
      3 H                     0.206538
      4 Si                    1.199412
      5 H                    -0.291782
      6 H                    -0.263682
      7 H                    -0.287895
      8 O                    -0.534242
      9 H                     0.113042
  ----------------------------------------
  Sum of atomic charges =    -0.000000

                    Cartesian Multipole Moments
 -----------------------------------------------------------------
    Charge (ESU x 10^10)
                -0.0000
    Dipole Moment (Debye)
         X      -3.7304      Y       0.4064      Z      -0.1789
       Tot       3.7567
    Quadrupole Moments (Debye-Ang)
        XX     -16.2430     XY       2.2817     YY     -31.5967
        XZ       0.5154     YZ      -0.5313     ZZ     -26.3983

 Total job time:  244.98s(wall), 511.53s(cpu)
        *  Thank you very much for using Q-Chem.  Have a nice day.  *
