 Q-Chem 5.1, Q-Chem, Inc., Pleasanton, CA (2018)
 Q-Chem 5.1.2 for Intel X86 EM64T Linux

User input:
--------------------------------------------------------------
$molecule
0 1
--
0 1
Si     2.376764240     0.137270735     0.463705189
H     2.850818527    -0.458840989     1.729658577
H     1.788718359     1.464378485     0.699128015
H     3.512521005     0.224749011    -0.476920657
O     1.131720522    -0.774155642    -0.187458262
H     1.331328116    -1.685531717    -0.412871535
--
0 1
Si    -3.471859631     0.259431080    -0.191929509
H    -3.778196115    -1.110065442     0.288549052
H    -4.676068973     0.830174239    -0.824359341
H    -3.110860609     1.072248532     0.995016436
O    -2.284941633     0.269596330    -1.339445231
H    -1.421208863    -0.055018219    -1.045439055
$end

$rem
BASIS = aug-cc-pVTZ
JOB_TYPE  =  BSSE
METHOD  =  MP2
SCF_CONVERGENCE  =  7
SCF_MAX_CYCLES  =  200
$end

--------------------------------------------------------------

             Standard Nuclear Orientation (Angstroms)
    I     Atom           X                Y                Z
 ----------------------------------------------------------------
    1      Si     -2.9606224335     0.3070347211     0.1576591333
    2      H      -3.6438869077     1.0715126184    -0.9060315350
    3      H      -2.3299716459     1.2129557365     1.1292678731
    4      H      -3.9454122859    -0.5721020443     0.8207431058
    5      O      -1.6956840087    -0.5873630160    -0.4786027700
    6      H      -1.9180247408    -1.2459151567    -1.1405199567
    7      Si      2.9182688582     0.3390689248    -0.1403210369
    8      H       3.0682516053     0.1168207762    -1.5992018918
    9      H       4.2325118226     0.1798368119     0.5102525177
   10      H       2.4455340506     1.7323998887     0.0467185503
   11      O       1.9071546613    -0.7621140667     0.5601888480
   12      H       0.9921829356    -0.7451430113     0.2433493629
 ----------------------------------------------------------------

    7    -732.4204717994      8.97E-08 Convergence criterion met
 Total energy in the final basis set = -732.42047180
        MP2         total energy =                  -733.19271311 au

                    Orbital Energies (a.u.)
 --------------------------------------------------------------

 Alpha MOs
 -- Occupied --
-68.807 -68.788 -20.574 -20.553  -6.151  -6.133  -4.258  -4.258
 -4.258  -4.239  -4.239  -4.239  -1.352  -1.333  -0.768  -0.747
 -0.661  -0.642  -0.565  -0.563  -0.547  -0.544  -0.487  -0.469
 -0.467  -0.449

          Ground-State Mulliken Net Atomic Charges

     Atom                 Charge (a.u.)
  ----------------------------------------
      1 Si                    1.011366
      2 H                    -0.205149
      3 H                    -0.174067
      4 H                    -0.208959
      5 O                    -0.510214
      6 H                     0.095705
      7 Si                    1.184758
      8 H                    -0.260810
      9 H                    -0.238573
     10 H                    -0.266234
     11 O                    -0.596761
     12 H                     0.168937
  ----------------------------------------
  Sum of atomic charges =    -0.000000

                    Cartesian Multipole Moments
 -----------------------------------------------------------------
    Charge (ESU x 10^10)
                -0.0000
    Dipole Moment (Debye)
         X      -2.5498      Y      -0.0141      Z      -1.4993
       Tot       2.9579
    Quadrupole Moments (Debye-Ang)
        XX     -40.7388     XY       3.4861     YY     -42.3000
        XZ       0.1529     YZ       3.3113     ZZ     -42.4782

 Total job time:  674.52s(wall), 1879.81s(cpu)
        *  Thank you very much for using Q-Chem.  Have a nice day.  *
