 Q-Chem 5.1, Q-Chem, Inc., Pleasanton, CA (2018)
 Q-Chem 5.1.2 for Intel X86 EM64T Linux

User input:
--------------------------------------------------------------
$molecule
0 1
--
0 1
O     2.477729308    -0.071662873    -0.195030085
H     2.720187232     0.518852264    -0.912611155
H     2.785696880     0.384663541     0.591916196
--
0 1
Si    -0.158857313    -0.016091080    -0.020440998
H     0.280887497     1.260327663    -0.628947536
H     0.210802323    -1.166713014    -0.854048742
H     0.405753910    -0.113745198     1.343586010
O    -1.824706843    -0.072322828     0.044127987
H    -2.250931381     0.607903267     0.567383123
$end

$rem
BASIS = aug-cc-pVTZ
JOB_TYPE  =  BSSE
METHOD  =  MP2
SCF_CONVERGENCE  =  7
SCF_MAX_CYCLES  =  200
$end

--------------------------------------------------------------

             Standard Nuclear Orientation (Angstroms)
    I     Atom           X                Y                Z
 ----------------------------------------------------------------
    1      O      -2.2836672930     0.0446426620     0.0838169246
    2      H      -2.5788733178     0.4155970943    -0.7514451757
    3      H      -2.5421752252    -0.8786936808     0.0291733720
    4      Si      0.3581018093     0.0124172939     0.0118716745
    5      H      -0.1326535881    -0.0264073833    -1.3847500698
    6      H      -0.0564936856     1.2438761712     0.6953192302
    7      H      -0.1129007932    -1.2000346445     0.7168601028
    8      O       2.0249615709     0.0731424383     0.0285093453
    9      H       2.4793170569    -0.6704604744    -0.3699710619
 ----------------------------------------------------------------

    9    -442.2655780728      3.27E-08 Convergence criterion met
 Total energy in the final basis set = -442.26557807
        MP2         total energy =                  -442.92568816 au

                    Orbital Energies (a.u.)
 --------------------------------------------------------------

 Alpha MOs
 -- Occupied --
-68.780 -20.586 -20.543  -6.124  -4.230  -4.230  -4.230  -1.375
 -1.324  -0.742  -0.736  -0.645  -0.606  -0.549  -0.536  -0.510
 -0.458  -0.443

          Ground-State Mulliken Net Atomic Charges

     Atom                 Charge (a.u.)
  ----------------------------------------
      1 O                    -0.444273
      2 H                     0.219456
      3 H                     0.207329
      4 Si                    1.188143
      5 H                    -0.233322
      6 H                    -0.150861
      7 H                    -0.225674
      8 O                    -0.661824
      9 H                     0.101025
  ----------------------------------------
  Sum of atomic charges =     0.000000

                    Cartesian Multipole Moments
 -----------------------------------------------------------------
    Charge (ESU x 10^10)
                 0.0000
    Dipole Moment (Debye)
         X      -1.9745      Y      -2.0523      Z      -1.9934
       Tot       3.4762
    Quadrupole Moments (Debye-Ang)
        XX     -23.6054     XY      -1.3715     YY     -25.8302
        XZ       2.0266     YZ      -0.2131     ZZ     -27.7646

 Total job time:  262.49s(wall), 555.83s(cpu)
        *  Thank you very much for using Q-Chem.  Have a nice day.  *
