 Q-Chem 5.1, Q-Chem, Inc., Pleasanton, CA (2018)
 Q-Chem 5.1.2 for Intel X86 EM64T Linux

User input:
--------------------------------------------------------------
$molecule
0 1
--
0 1
O     2.211620313     0.478466174    -0.303678005
H     2.668387860     1.019102152     0.345793294
H     2.839786115    -0.215073049    -0.521895639
--
0 1
Si    -2.512101783    -0.152245657     0.127492894
H    -2.617852706     1.325035980     0.200563744
H    -3.636404567    -0.753049271     0.870792031
H    -2.620794969    -0.533024485    -1.301946858
O    -1.129268387    -0.714732773     0.829570931
H    -0.297097618    -0.364956689     0.474056732
$end

$rem
BASIS = aug-cc-pVTZ
JOB_TYPE  =  BSSE
METHOD  =  MP2
SCF_CONVERGENCE  =  7
SCF_MAX_CYCLES  =  200
$end

--------------------------------------------------------------

             Standard Nuclear Orientation (Angstroms)
    I     Atom           X                Y                Z
 ----------------------------------------------------------------
    1      O      -3.1303484686     0.2398099415     0.0173108197
    2      H      -3.5953207723     0.0608664445    -0.8039788993
    3      H      -3.6750648632    -0.1696778813     0.6946671786
    4      Si      1.6546925053     0.2617943125     0.0048302700
    5      H       1.5636102613     1.2194202313    -1.1236821431
    6      H       2.9139536673    -0.4989539292    -0.1093571995
    7      H       1.6829968551     1.0559505840     1.2572756418
    8      O       0.4320175141    -0.8455350542    -0.0156896317
    9      H      -0.4692225855    -0.4869249232     0.0044821379
 ----------------------------------------------------------------

    8    -442.2731907300      5.77E-08 Convergence criterion met
 Total energy in the final basis set = -442.27319073
        MP2         total energy =                  -442.92809373 au

                    Orbital Energies (a.u.)
 --------------------------------------------------------------

 Alpha MOs
 -- Occupied --
-68.786 -20.584 -20.552  -6.131  -4.238  -4.238  -4.238  -1.369
 -1.331  -0.746  -0.732  -0.640  -0.603  -0.546  -0.543  -0.528
 -0.465  -0.448

          Ground-State Mulliken Net Atomic Charges

     Atom                 Charge (a.u.)
  ----------------------------------------
      1 O                    -0.436093
      2 H                     0.219600
      3 H                     0.219110
      4 Si                    1.180128
      5 H                    -0.272536
      6 H                    -0.219502
      7 H                    -0.268350
      8 O                    -0.574698
      9 H                     0.152341
  ----------------------------------------
  Sum of atomic charges =     0.000000

                    Cartesian Multipole Moments
 -----------------------------------------------------------------
    Charge (ESU x 10^10)
                -0.0000
    Dipole Moment (Debye)
         X      -2.9824      Y       0.1177      Z      -0.1877
       Tot       2.9906
    Quadrupole Moments (Debye-Ang)
        XX     -15.0975     XY       4.1028     YY     -31.2521
        XZ       0.7390     YZ      -0.5109     ZZ     -26.3415

 Total job time:  216.86s(wall), 451.66s(cpu)
        *  Thank you very much for using Q-Chem.  Have a nice day.  *
