 Q-Chem 5.1, Q-Chem, Inc., Pleasanton, CA (2018)
 Q-Chem 5.1.2 for Intel X86 EM64T Linux

User input:
--------------------------------------------------------------
$molecule
0 1
--
0 1
Si     1.877277124    -0.264555006    -0.002147324
H     1.013054241     0.893525003     0.332506176
H     1.752218881    -1.299809326     1.036281626
H     1.434006711    -0.793004013    -1.311922261
O     3.481273335     0.161191906    -0.019552128
H     3.741996224     0.827557153    -0.657431446
--
0 1
Si    -1.890348542     0.251823906     0.041499458
H    -1.019246454    -0.937020711     0.207940284
H    -1.770392595     1.129194911     1.216966366
H    -1.451298211     0.963909344    -1.179722285
O    -3.491891906    -0.176326047    -0.036495181
H    -3.750018816    -0.743223782    -0.765139271
$end

$rem
BASIS = aug-cc-pVTZ
JOB_TYPE  =  BSSE
METHOD  =  MP2
SCF_CONVERGENCE  =  7
SCF_MAX_CYCLES  =  200
$end

--------------------------------------------------------------

             Standard Nuclear Orientation (Angstroms)
    I     Atom           X                Y                Z
 ----------------------------------------------------------------
    1      Si      1.8858678617    -0.2381956020     0.0399553729
    2      H       1.0093379008     0.9335886729     0.2821129757
    3      H       1.7691550857    -1.1904597249     1.1558840998
    4      H       1.4505965184    -0.8717645194    -1.2251085315
    5      O       3.4855218666     0.2012476012    -0.0086650029
    6      H       3.7408017633     0.8184172826    -0.6963006988
    7      Si     -1.8868532026     0.2415221411     0.0385273928
    8      H      -1.0041471225    -0.9217482194     0.2983445672
    9      H      -1.7781257381     1.2091460124     1.1420554367
   10      H      -1.4525371045     0.8605580890    -1.2340202220
   11      O      -3.4838374224    -0.2077379886    -0.0077698009
   12      H      -3.7347620837    -0.8323860416    -0.6902479162
 ----------------------------------------------------------------

    7    -732.4159368611      9.25E-08 Convergence criterion met
 Total energy in the final basis set = -732.41593686
        MP2         total energy =                  -733.19138682 au

                    Orbital Energies (a.u.)
 --------------------------------------------------------------

 Alpha MOs
 -- Occupied --
-68.799 -68.799 -20.564 -20.564  -6.143  -6.143  -4.250  -4.250
 -4.250  -4.250  -4.250  -4.250  -1.345  -1.344  -0.765  -0.757
 -0.663  -0.644  -0.561  -0.557  -0.553  -0.551  -0.481  -0.475
 -0.461  -0.460

          Ground-State Mulliken Net Atomic Charges

     Atom                 Charge (a.u.)
  ----------------------------------------
      1 Si                    1.193710
      2 H                    -0.245768
      3 H                    -0.194707
      4 H                    -0.232705
      5 O                    -0.633996
      6 H                     0.113592
      7 Si                    1.192866
      8 H                    -0.245695
      9 H                    -0.195350
     10 H                    -0.232420
     11 O                    -0.633377
     12 H                     0.113850
  ----------------------------------------
  Sum of atomic charges =     0.000000

                    Cartesian Multipole Moments
 -----------------------------------------------------------------
    Charge (ESU x 10^10)
                 0.0000
    Dipole Moment (Debye)
         X       0.0044      Y      -0.0075      Z      -2.1774
       Tot       2.1774
    Quadrupole Moments (Debye-Ang)
        XX     -47.8616     XY       6.8971     YY     -40.6907
        XZ      -0.0427     YZ       0.0101     ZZ     -41.2246

 Total job time:  795.48s(wall), 2173.60s(cpu)
        *  Thank you very much for using Q-Chem.  Have a nice day.  *
