 Q-Chem 5.1, Q-Chem, Inc., Pleasanton, CA (2018)
 Q-Chem 5.1.2 for Intel X86 EM64T Linux

User input:
--------------------------------------------------------------
$molecule
0 1
--
0 1
Si     1.877277124    -0.264555006    -0.002147324
H     1.013054241     0.893525003     0.332506176
H     1.752218881    -1.299809326     1.036281626
H     1.434006711    -0.793004013    -1.311922261
O     3.481273335     0.161191906    -0.019552128
H     3.741996224     0.827557153    -0.657431446
--
0 1
Si    -3.567220072     0.322892963     0.048941536
H    -2.696117984    -0.865951655     0.215382363
H    -3.447264125     1.200263967     1.224408445
H    -3.128169742     1.034978400    -1.172280207
O    -5.168763437    -0.105256991    -0.029053102
H    -5.426890346    -0.672154726    -0.757697192
$end

$rem
BASIS = aug-cc-pVTZ
JOB_TYPE  =  BSSE
METHOD  =  MP2
SCF_CONVERGENCE  =  7
SCF_MAX_CYCLES  =  200
$end

--------------------------------------------------------------

             Standard Nuclear Orientation (Angstroms)
    I     Atom           X                Y                Z
 ----------------------------------------------------------------
    1      Si      2.7280744365    -0.2271910990     0.0398839350
    2      H       1.8352389485     0.9321689204     0.2822732925
    3      H       2.6247556090    -1.1811782545     1.1556614587
    4      H       2.3016549388    -0.8665839466    -1.2252645132
    5      O       4.3214180225     0.2346092138    -0.0087359476
    6      H       4.5680012750     0.8554043745    -0.6962816987
    7      Si     -2.7291025485     0.2304906786     0.0385994197
    8      H      -1.8301870771    -0.9203519380     0.2981859549
    9      H      -2.6338786979     1.1993611598     1.1422815165
   10      H      -2.3035543176     0.8557538001    -1.2338659588
   11      O      -4.3196436649    -0.2410726976    -0.0076999969
   12      H      -4.5618319714    -0.8690603601    -0.6902694607
 ----------------------------------------------------------------

    6    -732.4174997700      8.96E-08 Convergence criterion met
 Total energy in the final basis set = -732.41749977
        MP2         total energy =                  -733.18871471 au

                    Orbital Energies (a.u.)
 --------------------------------------------------------------

 Alpha MOs
 -- Occupied --
-68.798 -68.798 -20.563 -20.563  -6.142  -6.142  -4.249  -4.249
 -4.249  -4.249  -4.249  -4.249  -1.344  -1.344  -0.760  -0.760
 -0.653  -0.652  -0.556  -0.556  -0.554  -0.554  -0.477  -0.477
 -0.460  -0.459

          Ground-State Mulliken Net Atomic Charges

     Atom                 Charge (a.u.)
  ----------------------------------------
      1 Si                    1.092092
      2 H                    -0.228690
      3 H                    -0.182447
      4 H                    -0.232289
      5 O                    -0.562430
      6 H                     0.113771
      7 Si                    1.092954
      8 H                    -0.228713
      9 H                    -0.182908
     10 H                    -0.232420
     11 O                    -0.562772
     12 H                     0.113854
  ----------------------------------------
  Sum of atomic charges =     0.000000

                    Cartesian Multipole Moments
 -----------------------------------------------------------------
    Charge (ESU x 10^10)
                 0.0000
    Dipole Moment (Debye)
         X       0.0056      Y      -0.0068      Z      -2.1905
       Tot       2.1905
    Quadrupole Moments (Debye-Ang)
        XX     -49.4227     XY       8.1266     YY     -40.6342
        XZ      -0.0465     YZ       0.0101     ZZ     -41.2841

 Total job time:  545.98s(wall), 1468.52s(cpu)
        *  Thank you very much for using Q-Chem.  Have a nice day.  *
