 Q-Chem 5.1, Q-Chem, Inc., Pleasanton, CA (2018)
 Q-Chem 5.1.2 for Intel X86 EM64T Linux

User input:
--------------------------------------------------------------
$molecule
0 1
Si    1.877277124    -0.264555006    -0.002147324
H     1.013054241     0.893525003     0.332506176
H     1.752218881    -1.299809326     1.036281626
H     1.434006711    -0.793004013    -1.311922261
O     3.481273335     0.161191906    -0.019552128
H     3.741996224     0.827557153    -0.657431446
Si   -1.693456843     0.243479256     0.040625638
H    -0.822354755    -0.945365362     0.207066465
H    -1.573500896     1.120850260     1.216092546
H    -1.254406512     0.955564693    -1.180596105
O    -3.295000208    -0.184670698    -0.037369000
H    -3.553127117    -0.751568433    -0.766013090
$end

$rem
BASIS = aug-cc-pVTZ
JOB_TYPE  =  SP
METHOD  =  MP2
SCF_MAX_CYCLES  =  200
$end

--------------------------------------------------------------

    6    -732.4142065074      7.58e-06  Convergence criterion met
 Total energy in the final basis set =     -732.4142065074
        MP2         total energy =                  -733.19128823 au
 Total job time:  288.34s(wall), 1710.22s(cpu)
        *  Thank you very much for using Q-Chem.  Have a nice day.  *
 Q-Chem 5.1, Q-Chem, Inc., Pleasanton, CA (2018)
 Q-Chem 5.1.2 for Intel X86 EM64T Linux

User input:
--------------------------------------------------------------

$molecule
0 1
Si    1.877277124    -0.264555006    -0.002147324
H     1.013054241     0.893525003     0.332506176
H     1.752218881    -1.299809326     1.036281626
H     1.434006711    -0.793004013    -1.311922261
O     3.481273335     0.161191906    -0.019552128
H     3.741996224     0.827557153    -0.657431446
@Si   -1.693456843     0.243479256     0.040625638
@H    -0.822354755    -0.945365362     0.207066465
@H    -1.573500896     1.120850260     1.216092546
@H    -1.254406512     0.955564693    -1.180596105
@O    -3.295000208    -0.184670698    -0.037369000
@H    -3.553127117    -0.751568433    -0.766013090
$end

$rem
BASIS = aug-cc-pVTZ
JOB_TYPE  =  SP
METHOD  =  MP2
SCF_MAX_CYCLES  =  200
$end

--------------------------------------------------------------

    6    -366.2089614375      5.33e-06  Convergence criterion met
 Total energy in the final basis set =     -366.2089614375
        MP2         total energy =                  -366.59469483 au
 Total job time:  162.68s(wall), 970.53s(cpu)
        *  Thank you very much for using Q-Chem.  Have a nice day.  *
 Q-Chem 5.1, Q-Chem, Inc., Pleasanton, CA (2018)
 Q-Chem 5.1.2 for Intel X86 EM64T Linux

User input:
--------------------------------------------------------------

$molecule
0 1
@Si    1.877277124    -0.264555006    -0.002147324
@H     1.013054241     0.893525003     0.332506176
@H     1.752218881    -1.299809326     1.036281626
@H     1.434006711    -0.793004013    -1.311922261
@O     3.481273335     0.161191906    -0.019552128
@H     3.741996224     0.827557153    -0.657431446
Si   -1.693456843     0.243479256     0.040625638
H    -0.822354755    -0.945365362     0.207066465
H    -1.573500896     1.120850260     1.216092546
H    -1.254406512     0.955564693    -1.180596105
O    -3.295000208    -0.184670698    -0.037369000
H    -3.553127117    -0.751568433    -0.766013090
$end

$rem
BASIS = aug-cc-pVTZ
JOB_TYPE  =  SP
METHOD  =  MP2
SCF_MAX_CYCLES  =  200
$end

--------------------------------------------------------------

             Standard Nuclear Orientation (Angstroms)
    I     Atom           X                Y                Z
 ----------------------------------------------------------------
    1      GH      1.8772771240    -0.2645550060    -0.0021473240
    2      GH      1.0130542410     0.8935250030     0.3325061760
    3      GH      1.7522188810    -1.2998093260     1.0362816260
    4      GH      1.4340067110    -0.7930040130    -1.3119222610
    5      GH      3.4812733350     0.1611919060    -0.0195521280
    6      GH      3.7419962240     0.8275571530    -0.6574314460
    7      Si     -1.6934568430     0.2434792560     0.0406256380
    8      H      -0.8223547550    -0.9453653620     0.2070664650
    9      H      -1.5735008960     1.1208502600     1.2160925460
   10      H      -1.2544065120     0.9555646930    -1.1805961050
   11      O      -3.2950002080    -0.1846706980    -0.0373690000
   12      H      -3.5531271170    -0.7515684330    -0.7660130900
 ----------------------------------------------------------------

    6    -366.2089598931      5.33e-06  Convergence criterion met
 Total energy in the final basis set =     -366.2089598931
        MP2         total energy =                  -366.59469321 au

                    Orbital Energies (a.u.)
 --------------------------------------------------------------

 Alpha MOs
 -- Occupied --
-68.797 -20.562  -6.141  -4.248  -4.248  -4.248  -1.343  -0.759
 -0.651  -0.555  -0.553  -0.476  -0.458

          Ground-State Mulliken Net Atomic Charges

     Atom                 Charge (a.u.)
  ----------------------------------------
      1 GH                   -0.000144
      2 GH                   -0.032691
      3 GH                    0.003113
      4 GH                    0.000031
      5 GH                   -0.004635
      6 GH                    0.000164
      7 Si                    1.208718
      8 H                    -0.204701
      9 H                    -0.204070
     10 H                    -0.238690
     11 O                    -0.639383
     12 H                     0.112288
  ----------------------------------------
  Sum of atomic charges =     0.000000

                    Cartesian Multipole Moments
 -----------------------------------------------------------------
    Charge (ESU x 10^10)
                 0.0000
    Dipole Moment (Debye)
         X       0.3886      Y      -0.6857      Z      -1.1561
       Tot       1.3993
    Quadrupole Moments (Debye-Ang)
        XX     -23.7818     XY       3.0192     YY     -20.6532
        XZ       4.6550     YZ       1.4696     ZZ     -20.3975

 Total job time:  161.96s(wall), 966.05s(cpu)
        *  Thank you very much for using Q-Chem.  Have a nice day.  *
