 Q-Chem 5.1, Q-Chem, Inc., Pleasanton, CA (2018)
 Q-Chem 5.1.2 for Intel X86 EM64T Linux

User input:
--------------------------------------------------------------
$molecule
0 1
Si    1.877277124    -0.264555006    -0.002147324
H     1.013054241     0.893525003     0.332506176
H     1.752218881    -1.299809326     1.036281626
H     1.434006711    -0.793004013    -1.311922261
O     3.481273335     0.161191906    -0.019552128
H     3.741996224     0.827557153    -0.657431446
Si   -5.063597322     0.386312322     0.055582568
H    -4.192495234    -0.802532295     0.222023395
H    -4.943641375     1.263683327     1.231049476
H    -4.624546992     1.098397760    -1.165639175
O    -6.665140687    -0.041837632    -0.022412071
H    -6.923267596    -0.608735366    -0.751056161
$end

$rem
BASIS = aug-cc-pVTZ
JOB_TYPE  =  SP
METHOD  =  MP2
SCF_MAX_CYCLES  =  200
$end

--------------------------------------------------------------

    6    -732.4174340897      7.53e-06  Convergence criterion met
 Total energy in the final basis set =     -732.4174340897
        MP2         total energy =                  -733.18828630 au
 Total job time:  102.57s(wall), 600.40s(cpu)
        *  Thank you very much for using Q-Chem.  Have a nice day.  *
 Q-Chem 5.1, Q-Chem, Inc., Pleasanton, CA (2018)
 Q-Chem 5.1.2 for Intel X86 EM64T Linux

User input:
--------------------------------------------------------------

$molecule
0 1
Si    1.877277124    -0.264555006    -0.002147324
H     1.013054241     0.893525003     0.332506176
H     1.752218881    -1.299809326     1.036281626
H     1.434006711    -0.793004013    -1.311922261
O     3.481273335     0.161191906    -0.019552128
H     3.741996224     0.827557153    -0.657431446
@Si   -5.063597322     0.386312322     0.055582568
@H    -4.192495234    -0.802532295     0.222023395
@H    -4.943641375     1.263683327     1.231049476
@H    -4.624546992     1.098397760    -1.165639175
@O    -6.665140687    -0.041837632    -0.022412071
@H    -6.923267596    -0.608735366    -0.751056161
$end

$rem
BASIS = aug-cc-pVTZ
JOB_TYPE  =  SP
METHOD  =  MP2
SCF_MAX_CYCLES  =  200
$end

--------------------------------------------------------------

    6    -366.2087223206      5.32e-06  Convergence criterion met
 Total energy in the final basis set =     -366.2087223206
        MP2         total energy =                  -366.59410825 au
 Total job time:  90.37s(wall), 538.22s(cpu)
        *  Thank you very much for using Q-Chem.  Have a nice day.  *
 Q-Chem 5.1, Q-Chem, Inc., Pleasanton, CA (2018)
 Q-Chem 5.1.2 for Intel X86 EM64T Linux

User input:
--------------------------------------------------------------

$molecule
0 1
@Si    1.877277124    -0.264555006    -0.002147324
@H     1.013054241     0.893525003     0.332506176
@H     1.752218881    -1.299809326     1.036281626
@H     1.434006711    -0.793004013    -1.311922261
@O     3.481273335     0.161191906    -0.019552128
@H     3.741996224     0.827557153    -0.657431446
Si   -5.063597322     0.386312322     0.055582568
H    -4.192495234    -0.802532295     0.222023395
H    -4.943641375     1.263683327     1.231049476
H    -4.624546992     1.098397760    -1.165639175
O    -6.665140687    -0.041837632    -0.022412071
H    -6.923267596    -0.608735366    -0.751056161
$end

$rem
BASIS = aug-cc-pVTZ
JOB_TYPE  =  SP
METHOD  =  MP2
SCF_MAX_CYCLES  =  200
$end

--------------------------------------------------------------

             Standard Nuclear Orientation (Angstroms)
    I     Atom           X                Y                Z
 ----------------------------------------------------------------
    1      GH      1.8772771240    -0.2645550060    -0.0021473240
    2      GH      1.0130542410     0.8935250030     0.3325061760
    3      GH      1.7522188810    -1.2998093260     1.0362816260
    4      GH      1.4340067110    -0.7930040130    -1.3119222610
    5      GH      3.4812733350     0.1611919060    -0.0195521280
    6      GH      3.7419962240     0.8275571530    -0.6574314460
    7      Si     -5.0635973220     0.3863123220     0.0555825680
    8      H      -4.1924952340    -0.8025322950     0.2220233950
    9      H      -4.9436413750     1.2636833270     1.2310494760
   10      H      -4.6245469920     1.0983977600    -1.1656391750
   11      O      -6.6651406870    -0.0418376320    -0.0224120710
   12      H      -6.9232675960    -0.6087353660    -0.7510561610
 ----------------------------------------------------------------

    6    -366.2087219216      5.32e-06  Convergence criterion met
 Total energy in the final basis set =     -366.2087219216
        MP2         total energy =                  -366.59410784 au

                    Orbital Energies (a.u.)
 --------------------------------------------------------------

 Alpha MOs
 -- Occupied --
-68.797 -20.563  -6.141  -4.248  -4.248  -4.248  -1.343  -0.759
 -0.651  -0.555  -0.553  -0.476  -0.458

          Ground-State Mulliken Net Atomic Charges

     Atom                 Charge (a.u.)
  ----------------------------------------
      1 GH                   -0.000365
      2 GH                   -0.000214
      3 GH                    0.000067
      4 GH                    0.000108
      5 GH                    0.000002
      6 GH                   -0.000001
      7 Si                    1.113888
      8 H                    -0.236389
      9 H                    -0.191128
     10 H                    -0.235495
     11 O                    -0.563292
     12 H                     0.112817
  ----------------------------------------
  Sum of atomic charges =    -0.000002

                    Cartesian Multipole Moments
 -----------------------------------------------------------------
    Charge (ESU x 10^10)
                -0.0000
    Dipole Moment (Debye)
         X       0.3906      Y      -0.6865      Z      -1.1574
       Tot       1.4013
    Quadrupole Moments (Debye-Ang)
        XX     -26.4317     XY       5.3898     YY     -20.8496
        XZ       8.5662     YZ       1.2945     ZZ     -20.4313

 Total job time:  89.90s(wall), 535.36s(cpu)
        *  Thank you very much for using Q-Chem.  Have a nice day.  *
