 Q-Chem 5.1, Q-Chem, Inc., Pleasanton, CA (2018)
 Q-Chem 5.1.2 for Intel X86 EM64T Linux

User input:
--------------------------------------------------------------
$molecule
0 1
--
0 1
Si    -1.640187497     0.014756195    -0.076542663
H    -1.249232765     0.430015437    -1.441631202
H    -1.476279169    -1.439058300     0.106937392
H    -0.831012870     0.762824413     0.910049803
O    -3.267604738     0.280116950     0.176348953
H    -3.569749209     1.178548253     0.032578653
--
0 1
Si     2.413815652     0.121858682    -0.001926544
H     2.790226938    -0.149575361     1.402414368
H     2.015612831     1.530487929    -0.161885592
H     3.578948340    -0.172559936    -0.863391119
O     1.082877031    -0.770022158    -0.454854931
H     1.113812211    -1.713524852    -0.283192501
$end

$rem
BASIS = aug-cc-pVTZ
JOB_TYPE  =  BSSE
METHOD  =  MP2
SCF_CONVERGENCE  =  8
SCF_MAX_CYCLES  =  200
$end

--------------------------------------------------------------

             Standard Nuclear Orientation (Angstroms)
    I     Atom           X                Y                Z
 ----------------------------------------------------------------
    1      Si     -1.5573965213    -0.0548982888    -0.0298791376
    2      H      -1.1555479529    -0.0965352796    -1.4530926314
    3      H      -1.3174822668    -1.3510007346     0.6309287444
    4      H      -0.8165350651     1.0276949629     0.6533854407
    5      O      -3.2029799015     0.1798804913     0.1108036239
    6      H      -3.5509439078     0.9584425078    -0.3272628364
    7      Si      2.4811289208     0.3181283106     0.0261873342
    8      H       2.8361942303     0.5549778967     1.4422968612
    9      H       2.0092782112     1.5652936202    -0.5985720895
   10      H       3.6824108892    -0.1755092358    -0.6806233354
   11      O       1.2139052296    -0.7532715408    -0.1088668920
   12      H       1.2929696438    -1.5814556472     0.3691312391
 ----------------------------------------------------------------

   10    -732.4165093339      7.77E-09 Convergence criterion met
 Total energy in the final basis set = -732.41650933
        MP2         total energy =                  -733.19292593 au

                    Orbital Energies (a.u.)
 --------------------------------------------------------------

 Alpha MOs
 -- Occupied --
-68.803 -68.783 -20.572 -20.547  -6.148  -6.127  -4.255  -4.254
 -4.254  -4.234  -4.234  -4.233  -1.354  -1.328  -0.768  -0.744
 -0.663  -0.638  -0.569  -0.565  -0.538  -0.531  -0.483  -0.468
 -0.462  -0.444

          Ground-State Mulliken Net Atomic Charges

     Atom                 Charge (a.u.)
  ----------------------------------------
      1 Si                    1.157063
      2 H                    -0.181369
      3 H                    -0.178228
      4 H                    -0.212926
      5 O                    -0.646715
      6 H                     0.102628
      7 Si                    1.035227
      8 H                    -0.207609
      9 H                    -0.178782
     10 H                    -0.240396
     11 O                    -0.537674
     12 H                     0.088781
  ----------------------------------------
  Sum of atomic charges =     0.000000

                    Cartesian Multipole Moments
 -----------------------------------------------------------------
    Charge (ESU x 10^10)
                 0.0000
    Dipole Moment (Debye)
         X       1.8112      Y       0.2962      Z      -0.0224
       Tot       1.8354
    Quadrupole Moments (Debye-Ang)
        XX     -43.4663     XY      -6.0247     YY     -38.1103
        XZ       4.2358     YZ      -2.5126     ZZ     -43.2920

 Total job time:  1030.90s(wall), 2768.50s(cpu)
        *  Thank you very much for using Q-Chem.  Have a nice day.  *
