 Q-Chem 5.1, Q-Chem, Inc., Pleasanton, CA (2018)
 Q-Chem 5.1.2 for Intel X86 EM64T Linux

User input:
--------------------------------------------------------------
$molecule
0 1
--
0 1
O     2.211620313     0.478466174    -0.303678005
H     2.668387860     1.019102152     0.345793294
H     2.839786115    -0.215073049    -0.521895639
--
0 1
Si    -1.683963462     0.002229685     0.005393722
H    -1.789714385     1.479511322     0.078464572
H    -2.808266246    -0.598573929     0.748692858
H    -1.792656648    -0.378549143    -1.424046031
O    -0.301130066    -0.560257431     0.707471758
H     0.531040703    -0.210481347     0.351957559
$end

$rem
BASIS = aug-cc-pVTZ
JOB_TYPE  =  BSSE
METHOD  =  MP2
SCF_CONVERGENCE  =  7
SCF_MAX_CYCLES  =  200
$end

--------------------------------------------------------------

             Standard Nuclear Orientation (Angstroms)
    I     Atom           X                Y                Z
 ----------------------------------------------------------------
    1      O      -2.5096890416     0.2753747533     0.0180220892
    2      H      -2.9806422960     0.1120014004    -0.8031045762
    3      H      -3.0663922266    -0.1177398345     0.6953332061
    4      Si      1.4268065332     0.2338751462     0.0046114140
    5      H       1.3647686068     1.1952271090    -1.1227028019
    6      H       2.6616452035    -0.5656323468    -0.1114771945
    7      H       1.4808178487     1.0252613021     1.2579650999
    8      O       0.1701808094    -0.8347646324    -0.0162293929
    9      H      -0.7194227436    -0.4482506446     0.0050849007
 ----------------------------------------------------------------

    8    -442.2761067450      6.14E-08 Convergence criterion met
 Total energy in the final basis set = -442.27610675
        MP2         total energy =                  -442.93334062 au

                    Orbital Energies (a.u.)
 --------------------------------------------------------------

 Alpha MOs
 -- Occupied --
-68.779 -20.600 -20.536  -6.124  -4.231  -4.231  -4.231  -1.387
 -1.318  -0.748  -0.740  -0.647  -0.609  -0.543  -0.535  -0.532
 -0.458  -0.440

          Ground-State Mulliken Net Atomic Charges

     Atom                 Charge (a.u.)
  ----------------------------------------
      1 O                    -0.442123
      2 H                     0.220279
      3 H                     0.220230
      4 Si                    1.192055
      5 H                    -0.290204
      6 H                    -0.240073
      7 H                    -0.285921
      8 O                    -0.543363
      9 H                     0.169119
  ----------------------------------------
  Sum of atomic charges =    -0.000000

                    Cartesian Multipole Moments
 -----------------------------------------------------------------
    Charge (ESU x 10^10)
                 0.0000
    Dipole Moment (Debye)
         X      -3.4211      Y       0.2852      Z      -0.1818
       Tot       3.4378
    Quadrupole Moments (Debye-Ang)
        XX     -16.0339     XY       2.7960     YY     -31.4602
        XZ       0.5717     YZ      -0.5249     ZZ     -26.3757

 Total job time:  224.49s(wall), 468.97s(cpu)
        *  Thank you very much for using Q-Chem.  Have a nice day.  *
