 Q-Chem 5.1, Q-Chem, Inc., Pleasanton, CA (2018)
 Q-Chem 5.1.2 for Intel X86 EM64T Linux

User input:
--------------------------------------------------------------
$molecule
0 1
--
0 1
Si     2.376764240     0.137270735     0.463705189
H     2.850818527    -0.458840989     1.729658577
H     1.788718359     1.464378485     0.699128015
H     3.512521005     0.224749011    -0.476920657
O     1.131720522    -0.774155642    -0.187458262
H     1.331328116    -1.685531717    -0.412871535
--
0 1
Si    -2.517416710     0.175149053    -0.037895025
H    -2.823753194    -1.194347469     0.442583537
H    -3.721626052     0.745892212    -0.670324856
H    -2.156417688     0.987966505     1.149050920
O    -1.330498713     0.185314303    -1.185410746
H    -0.466765942    -0.139300246    -0.891404571
$end

$rem
BASIS = aug-cc-pVTZ
JOB_TYPE  =  BSSE
METHOD  =  MP2
SCF_CONVERGENCE  =  7
SCF_MAX_CYCLES  =  200
$end

--------------------------------------------------------------

             Standard Nuclear Orientation (Angstroms)
    I     Atom           X                Y                Z
 ----------------------------------------------------------------
    1      Si     -2.4773878667     0.3083163433     0.1377195243
    2      H      -3.1448815142     1.0717626181    -0.9366717690
    3      H      -1.8590986378     1.2151677356     1.1163797447
    4      H      -3.4723856196    -0.5684127914     0.7886406840
    5      O      -1.2049005205    -0.5887875724    -0.4793916964
    6      H      -1.4188926238    -1.2482325906    -1.1431690182
    7      Si      2.4356217689     0.3378694404    -0.1221028155
    8      H       2.6055098820     0.1128503631    -1.5783743759
    9      H       3.7405253012     0.1781470137     0.5468896372
   10      H       1.9621183420     1.7321193936     0.0559273879
   11      O       1.4135009225    -0.7608062004     0.5662654039
   12      H       0.5030270225    -0.7432525327     0.2367541261
 ----------------------------------------------------------------

    8    -732.4228090694      9.77E-08 Convergence criterion met
 Total energy in the final basis set = -732.42280907
        MP2         total energy =                  -733.19829668 au

                    Orbital Energies (a.u.)
 --------------------------------------------------------------

 Alpha MOs
 -- Occupied --
-68.814 -68.780 -20.589 -20.534  -6.159  -6.125  -4.266  -4.265
 -4.265  -4.231  -4.231  -4.231  -1.371  -1.316  -0.781  -0.740
 -0.678  -0.636  -0.578  -0.572  -0.533  -0.531  -0.494  -0.479
 -0.458  -0.440

          Ground-State Mulliken Net Atomic Charges

     Atom                 Charge (a.u.)
  ----------------------------------------
      1 Si                    0.993785
      2 H                    -0.206085
      3 H                    -0.164179
      4 H                    -0.210840
      5 O                    -0.502565
      6 H                     0.088289
      7 Si                    1.176745
      8 H                    -0.270039
      9 H                    -0.267136
     10 H                    -0.264717
     11 O                    -0.572434
     12 H                     0.199176
  ----------------------------------------
  Sum of atomic charges =    -0.000000

                    Cartesian Multipole Moments
 -----------------------------------------------------------------
    Charge (ESU x 10^10)
                 0.0000
    Dipole Moment (Debye)
         X      -3.0953      Y      -0.0199      Z      -1.6126
       Tot       3.4902
    Quadrupole Moments (Debye-Ang)
        XX     -40.9757     XY       2.8996     YY     -42.2675
        XZ       0.1825     YZ       3.4845     ZZ     -42.4441

 Total job time:  813.96s(wall), 2278.48s(cpu)
        *  Thank you very much for using Q-Chem.  Have a nice day.  *
