 Q-Chem 5.1, Q-Chem, Inc., Pleasanton, CA (2018)
 Q-Chem 5.1.2 for Intel X86 EM64T Linux

User input:
--------------------------------------------------------------
$molecule
0 1
Si    2.376764240     0.137270735     0.463705189
H     2.850818527    -0.458840989     1.729658577
H     1.788718359     1.464378485     0.699128015
H     3.512521005     0.224749011    -0.476920657
O     1.131720522    -0.774155642    -0.187458262
H     1.331328116    -1.685531717    -0.412871535
Si   -2.903512665     0.209243234    -0.100205814
H    -3.209849149    -1.160253288     0.380272748
H    -4.107722007     0.779986393    -0.732635645
H    -2.542513643     1.022060686     1.086740131
O    -1.716594668     0.219408484    -1.247721535
H    -0.852861897    -0.105206065    -0.953715360
$end

$rem
BASIS = aug-cc-pVTZ
JOB_TYPE  =  SP
METHOD  =  MP2
SCF_MAX_CYCLES  =  200
$end

--------------------------------------------------------------

    6    -732.4228681537      7.33e-06  Convergence criterion met
 Total energy in the final basis set =     -732.4228681537
        MP2         total energy =                  -733.19644746 au
 Total job time:  285.69s(wall), 1694.63s(cpu)
        *  Thank you very much for using Q-Chem.  Have a nice day.  *
 Q-Chem 5.1, Q-Chem, Inc., Pleasanton, CA (2018)
 Q-Chem 5.1.2 for Intel X86 EM64T Linux

User input:
--------------------------------------------------------------

$molecule
0 1
Si    2.376764240     0.137270735     0.463705189
H     2.850818527    -0.458840989     1.729658577
H     1.788718359     1.464378485     0.699128015
H     3.512521005     0.224749011    -0.476920657
O     1.131720522    -0.774155642    -0.187458262
H     1.331328116    -1.685531717    -0.412871535
@Si   -2.903512665     0.209243234    -0.100205814
@H    -3.209849149    -1.160253288     0.380272748
@H    -4.107722007     0.779986393    -0.732635645
@H    -2.542513643     1.022060686     1.086740131
@O    -1.716594668     0.219408484    -1.247721535
@H    -0.852861897    -0.105206065    -0.953715360
$end

$rem
BASIS = aug-cc-pVTZ
JOB_TYPE  =  SP
METHOD  =  MP2
SCF_MAX_CYCLES  =  200
$end

--------------------------------------------------------------

    6    -366.2083027368      5.27e-06  Convergence criterion met
 Total energy in the final basis set =     -366.2083027368
        MP2         total energy =                  -366.59448507 au
 Total job time:  159.73s(wall), 951.60s(cpu)
        *  Thank you very much for using Q-Chem.  Have a nice day.  *
 Q-Chem 5.1, Q-Chem, Inc., Pleasanton, CA (2018)
 Q-Chem 5.1.2 for Intel X86 EM64T Linux

User input:
--------------------------------------------------------------

$molecule
0 1
@Si    2.376764240     0.137270735     0.463705189
@H     2.850818527    -0.458840989     1.729658577
@H     1.788718359     1.464378485     0.699128015
@H     3.512521005     0.224749011    -0.476920657
@O     1.131720522    -0.774155642    -0.187458262
@H     1.331328116    -1.685531717    -0.412871535
Si   -2.903512665     0.209243234    -0.100205814
H    -3.209849149    -1.160253288     0.380272748
H    -4.107722007     0.779986393    -0.732635645
H    -2.542513643     1.022060686     1.086740131
O    -1.716594668     0.219408484    -1.247721535
H    -0.852861897    -0.105206065    -0.953715360
$end

$rem
BASIS = aug-cc-pVTZ
JOB_TYPE  =  SP
METHOD  =  MP2
SCF_MAX_CYCLES  =  200
$end

--------------------------------------------------------------

             Standard Nuclear Orientation (Angstroms)
    I     Atom           X                Y                Z
 ----------------------------------------------------------------
    1      GH      2.3767642400     0.1372707350     0.4637051890
    2      GH      2.8508185270    -0.4588409890     1.7296585770
    3      GH      1.7887183590     1.4643784850     0.6991280150
    4      GH      3.5125210050     0.2247490110    -0.4769206570
    5      GH      1.1317205220    -0.7741556420    -0.1874582620
    6      GH      1.3313281160    -1.6855317170    -0.4128715350
    7      Si     -2.9035126650     0.2092432340    -0.1002058140
    8      H      -3.2098491490    -1.1602532880     0.3802727480
    9      H      -4.1077220070     0.7799863930    -0.7326356450
   10      H      -2.5425136430     1.0220606860     1.0867401310
   11      O      -1.7165946680     0.2194084840    -1.2477215350
   12      H      -0.8528618970    -0.1052060650    -0.9537153600
 ----------------------------------------------------------------

    6    -366.2082899157      5.57e-06  Convergence criterion met
 Total energy in the final basis set =     -366.2082899157
        MP2         total energy =                  -366.59418985 au

                    Orbital Energies (a.u.)
 --------------------------------------------------------------

 Alpha MOs
 -- Occupied --
-68.796 -20.566  -6.141  -4.247  -4.247  -4.247  -1.346  -0.757
 -0.652  -0.558  -0.555  -0.475  -0.458

          Ground-State Mulliken Net Atomic Charges

     Atom                 Charge (a.u.)
  ----------------------------------------
      1 GH                   -0.003151
      2 GH                    0.000780
      3 GH                   -0.000438
      4 GH                   -0.000379
      5 GH                    0.010156
      6 GH                   -0.000541
      7 Si                    1.192795
      8 H                    -0.265281
      9 H                    -0.242460
     10 H                    -0.265615
     11 O                    -0.583387
     12 H                     0.157522
  ----------------------------------------
  Sum of atomic charges =     0.000000

                    Cartesian Multipole Moments
 -----------------------------------------------------------------
    Charge (ESU x 10^10)
                -0.0000
    Dipole Moment (Debye)
         X       0.8818      Y      -0.5325      Z       0.9870
       Tot       1.4266
    Quadrupole Moments (Debye-Ang)
        XX     -22.3638     XY       0.2325     YY     -21.9451
        XZ      -2.3532     YZ       0.7388     ZZ     -24.3651

 Total job time:  173.02s(wall), 1031.41s(cpu)
        *  Thank you very much for using Q-Chem.  Have a nice day.  *
