 Q-Chem 5.1, Q-Chem, Inc., Pleasanton, CA (2018)
 Q-Chem 5.1.2 for Intel X86 EM64T Linux

User input:
--------------------------------------------------------------
$molecule
0 1
--
0 1
Si     2.376764240     0.137270735     0.463705189
H     2.850818527    -0.458840989     1.729658577
H     1.788718359     1.464378485     0.699128015
H     3.512521005     0.224749011    -0.476920657
O     1.131720522    -0.774155642    -0.187458262
H     1.331328116    -1.685531717    -0.412871535
--
0 1
Si    -2.614733416     0.183742599    -0.053600656
H    -2.921069900    -1.185753923     0.426877905
H    -3.818942758     0.754485758    -0.686030487
H    -2.253734394     0.996560051     1.133345289
O    -1.427815418     0.193907849    -1.201116377
H    -0.564082648    -0.130706700    -0.907110202
$end

$rem
BASIS = aug-cc-pVTZ
JOB_TYPE  =  BSSE
METHOD  =  MP2
SCF_CONVERGENCE  =  7
SCF_MAX_CYCLES  =  200
$end

--------------------------------------------------------------

             Standard Nuclear Orientation (Angstroms)
    I     Atom           X                Y                Z
 ----------------------------------------------------------------
    1      Si     -2.5266111199     0.3081620518     0.1401733900
    2      H      -3.1961764797     1.0717361391    -0.9328370840
    3      H      -1.9066877567     1.2148985877     1.1179058296
    4      H      -3.5202860032    -0.5688659927     0.7927106654
    5      O      -1.2551056169    -0.5886063181    -0.4794442235
    6      H      -1.4701994097    -1.2479409295    -1.1429750938
    7      Si      2.4847714499     0.3380137043    -0.1243402000
    8      H       2.6520485967     0.1133380011    -1.5809669873
    9      H       3.7909136632     0.1783524304     0.5422452636
   10      H       2.0113721883     1.7321499739     0.0548534979
   11      O       1.4640766036    -0.7609732692     0.5656450601
   12      H       0.5530026886    -0.7434920973     0.2377925561
 ----------------------------------------------------------------

    8    -732.4232428116      8.36E-08 Convergence criterion met
 Total energy in the final basis set = -732.42324281
        MP2         total energy =                  -733.19812054 au

                    Orbital Energies (a.u.)
 --------------------------------------------------------------

 Alpha MOs
 -- Occupied --
-68.813 -68.781 -20.587 -20.537  -6.158  -6.126  -4.265  -4.264
 -4.264  -4.233  -4.232  -4.232  -1.367  -1.319  -0.779  -0.740
 -0.675  -0.636  -0.576  -0.573  -0.536  -0.533  -0.493  -0.477
 -0.460  -0.442

          Ground-State Mulliken Net Atomic Charges

     Atom                 Charge (a.u.)
  ----------------------------------------
      1 Si                    0.991876
      2 H                    -0.205544
      3 H                    -0.164883
      4 H                    -0.210962
      5 O                    -0.513140
      6 H                     0.088698
      7 Si                    1.178323
      8 H                    -0.270520
      9 H                    -0.261040
     10 H                    -0.266462
     11 O                    -0.575735
     12 H                     0.209389
  ----------------------------------------
  Sum of atomic charges =     0.000000

                    Cartesian Multipole Moments
 -----------------------------------------------------------------
    Charge (ESU x 10^10)
                 0.0000
    Dipole Moment (Debye)
         X      -3.0047      Y      -0.0175      Z      -1.5898
       Tot       3.3994
    Quadrupole Moments (Debye-Ang)
        XX     -40.9244     XY       2.9576     YY     -42.2728
        XZ       0.1854     YZ       3.4531     ZZ     -42.4473

 Total job time:  796.21s(wall), 2239.47s(cpu)
        *  Thank you very much for using Q-Chem.  Have a nice day.  *
