 Q-Chem 5.1, Q-Chem, Inc., Pleasanton, CA (2018)
 Q-Chem 5.1.2 for Intel X86 EM64T Linux

User input:
--------------------------------------------------------------
$molecule
0 1
Si   -1.640187497     0.014756195    -0.076542663
H    -1.249232765     0.430015437    -1.441631202
H    -1.476279169    -1.439058300     0.106937392
H    -0.831012870     0.762824413     0.910049803
O    -3.267604738     0.280116950     0.176348953
H    -3.569749209     1.178548253     0.032578653
Si    5.540565708    -0.116172621    -0.119257661
H     5.916976994    -0.387606665     1.285083250
H     5.142362887     1.292456625    -0.279216710
H     6.705698396    -0.410591240    -0.980722236
O     4.209627087    -1.008053462    -0.572186048
H     4.240562267    -1.951556156    -0.400523618
$end

$rem
BASIS = aug-cc-pVTZ
JOB_TYPE  =  SP
METHOD  =  MP2
SCF_MAX_CYCLES  =  200
$end

--------------------------------------------------------------

    6    -732.4170300323      7.51e-06  Convergence criterion met
 Total energy in the final basis set =     -732.4170300323
        MP2         total energy =                  -733.18832143 au
 Total job time:  108.10s(wall), 633.05s(cpu)
        *  Thank you very much for using Q-Chem.  Have a nice day.  *
 Q-Chem 5.1, Q-Chem, Inc., Pleasanton, CA (2018)
 Q-Chem 5.1.2 for Intel X86 EM64T Linux

User input:
--------------------------------------------------------------

$molecule
0 1
Si  -1.640187497     0.014756195    -0.076542663
H   -1.249232765     0.430015437    -1.441631202
H   -1.476279169    -1.439058300     0.106937392
H   -0.831012870     0.762824413     0.910049803
O   -3.267604738     0.280116950     0.176348953
H   -3.569749209     1.178548253     0.032578653
@Si   5.540565708    -0.116172621    -0.119257661
@H    5.916976994    -0.387606665     1.285083250
@H    5.142362887     1.292456625    -0.279216710
@H    6.705698396    -0.410591240    -0.980722236
@O    4.209627087    -1.008053462    -0.572186048
@H    4.240562267    -1.951556156    -0.400523618
$end

$rem
BASIS = aug-cc-pVTZ
JOB_TYPE  =  SP
METHOD  =  MP2
SCF_MAX_CYCLES  =  200
$end

--------------------------------------------------------------

    6    -366.2082896058      5.32e-06  Convergence criterion met
 Total energy in the final basis set =     -366.2082896058
        MP2         total energy =                  -366.59397663 au
 Total job time:  96.40s(wall), 574.20s(cpu)
        *  Thank you very much for using Q-Chem.  Have a nice day.  *
 Q-Chem 5.1, Q-Chem, Inc., Pleasanton, CA (2018)
 Q-Chem 5.1.2 for Intel X86 EM64T Linux

User input:
--------------------------------------------------------------

$molecule
0 1
@Si   -1.640187497     0.014756195    -0.076542663
@H    -1.249232765     0.430015437    -1.441631202
@H    -1.476279169    -1.439058300     0.106937392
@H    -0.831012870     0.762824413     0.910049803
@O    -3.267604738     0.280116950     0.176348953
@H    -3.569749209     1.178548253     0.032578653
Si    5.540565708    -0.116172621    -0.119257661
H     5.916976994    -0.387606665     1.285083250
H     5.142362887     1.292456625    -0.279216710
H     6.705698396    -0.410591240    -0.980722236
O     4.209627087    -1.008053462    -0.572186048
H     4.240562267    -1.951556156    -0.400523618
$end

$rem
BASIS = aug-cc-pVTZ
JOB_TYPE  =  SP
METHOD  =  MP2
SCF_MAX_CYCLES  =  200
$end

--------------------------------------------------------------

             Standard Nuclear Orientation (Angstroms)
    I     Atom           X                Y                Z
 ----------------------------------------------------------------
    1      GH     -1.6401874970     0.0147561950    -0.0765426630
    2      GH     -1.2492327650     0.4300154370    -1.4416312020
    3      GH     -1.4762791690    -1.4390583000     0.1069373920
    4      GH     -0.8310128700     0.7628244130     0.9100498030
    5      GH     -3.2676047380     0.2801169500     0.1763489530
    6      GH     -3.5697492090     1.1785482530     0.0325786530
    7      Si      5.5405657080    -0.1161726210    -0.1192576610
    8      H       5.9169769940    -0.3876066650     1.2850832500
    9      H       5.1423628870     1.2924566250    -0.2792167100
   10      H       6.7056983960    -0.4105912400    -0.9807222360
   11      O       4.2096270870    -1.0080534620    -0.5721860480
   12      H       4.2405622670    -1.9515561560    -0.4005236180
 ----------------------------------------------------------------

    6    -366.2085405581      5.30e-06  Convergence criterion met
 Total energy in the final basis set =     -366.2085405581
        MP2         total energy =                  -366.59409980 au

                    Orbital Energies (a.u.)
 --------------------------------------------------------------

 Alpha MOs
 -- Occupied --
-68.797 -20.562  -6.142  -4.248  -4.248  -4.248  -1.341  -0.758
 -0.650  -0.554  -0.552  -0.476  -0.459

          Ground-State Mulliken Net Atomic Charges

     Atom                 Charge (a.u.)
  ----------------------------------------
      1 GH                    0.000141
      2 GH                   -0.000002
      3 GH                    0.000093
      4 GH                   -0.000352
      5 GH                   -0.000000
      6 GH                   -0.000005
      7 Si                    1.082673
      8 H                    -0.224300
      9 H                    -0.190458
     10 H                    -0.223871
     11 O                    -0.565413
     12 H                     0.121493
  ----------------------------------------
  Sum of atomic charges =    -0.000001

                    Cartesian Multipole Moments
 -----------------------------------------------------------------
    Charge (ESU x 10^10)
                -0.0000
    Dipole Moment (Debye)
         X       0.7736      Y      -1.0713      Z       0.5331
       Tot       1.4250
    Quadrupole Moments (Debye-Ang)
        XX     -15.1543     XY      -4.8324     YY     -16.7780
        XZ       1.8916     YZ      -0.1740     ZZ     -22.4659

 Total job time:  96.45s(wall), 574.57s(cpu)
        *  Thank you very much for using Q-Chem.  Have a nice day.  *
