 Q-Chem 5.1, Q-Chem, Inc., Pleasanton, CA (2018)
 Q-Chem 5.1.2 for Intel X86 EM64T Linux

User input:
--------------------------------------------------------------
$molecule
0 1
--
0 1
Si     1.877277124    -0.264555006    -0.002147324
H     1.013054241     0.893525003     0.332506176
H     1.752218881    -1.299809326     1.036281626
H     1.434006711    -0.793004013    -1.311922261
O     3.481273335     0.161191906    -0.019552128
H     3.741996224     0.827557153    -0.657431446
--
0 1
Si    -2.077879599     0.259771835     0.042331734
H    -1.206777511    -0.929072782     0.208772561
H    -1.957923653     1.137142839     1.217798643
H    -1.638829269     0.971857273    -1.178890009
O    -3.679422964    -0.168378119    -0.035662904
H    -3.937549874    -0.735275854    -0.764306994
$end

$rem
BASIS = aug-cc-pVTZ
JOB_TYPE  =  BSSE
METHOD  =  MP2
SCF_CONVERGENCE  =  7
SCF_MAX_CYCLES  =  200
$end

--------------------------------------------------------------

             Standard Nuclear Orientation (Angstroms)
    I     Atom           X                Y                Z
 ----------------------------------------------------------------
    1      Si      1.9802010773    -0.2368315017     0.0399448068
    2      H       1.1010698545     0.9329945476     0.2821405359
    3      H       1.8656140480    -1.1893828977     1.1558486584
    4      H       1.5463300251    -0.8713324241    -1.2251330119
    5      O       3.5788737535     0.2061684385    -0.0086754805
    6      H       3.8327757579     0.8239227301    -0.6962963782
    7      Si     -1.9811932282     0.2401537225     0.0385380556
    8      H      -1.0959011013    -0.9211582596     0.2983172890
    9      H      -1.8746091530     1.2079871301     1.1420914489
   10      H      -1.5482639604     0.8601881247    -1.2339960297
   11      O      -3.5771750061    -0.2126546216    -0.0077595104
   12      H      -3.8267153376    -0.8378405784    -0.6902526575
 ----------------------------------------------------------------

    7    -732.4168075596      5.96E-08 Convergence criterion met
 Total energy in the final basis set = -732.41680756
        MP2         total energy =                  -733.19111355 au

                    Orbital Energies (a.u.)
 --------------------------------------------------------------

 Alpha MOs
 -- Occupied --
-68.799 -68.799 -20.564 -20.564  -6.143  -6.143  -4.250  -4.250
 -4.250  -4.250  -4.250  -4.249  -1.345  -1.345  -0.764  -0.758
 -0.660  -0.646  -0.560  -0.556  -0.554  -0.552  -0.480  -0.475
 -0.461  -0.460

          Ground-State Mulliken Net Atomic Charges

     Atom                 Charge (a.u.)
  ----------------------------------------
      1 Si                    1.168224
      2 H                    -0.238144
      3 H                    -0.188354
      4 H                    -0.228150
      5 O                    -0.628692
      6 H                     0.115162
      7 Si                    1.167584
      8 H                    -0.237992
      9 H                    -0.189060
     10 H                    -0.227928
     11 O                    -0.628119
     12 H                     0.115469
  ----------------------------------------
  Sum of atomic charges =    -0.000000

                    Cartesian Multipole Moments
 -----------------------------------------------------------------
    Charge (ESU x 10^10)
                -0.0000
    Dipole Moment (Debye)
         X       0.0047      Y      -0.0073      Z      -2.1806
       Tot       2.1806
    Quadrupole Moments (Debye-Ang)
        XX     -47.9965     XY       7.0311     YY     -40.6953
        XZ      -0.0429     YZ       0.0102     ZZ     -41.2398

 Total job time:  703.43s(wall), 1957.38s(cpu)
        *  Thank you very much for using Q-Chem.  Have a nice day.  *
