 Q-Chem 5.1, Q-Chem, Inc., Pleasanton, CA (2018)
 Q-Chem 5.1.2 for Intel X86 EM64T Linux

User input:
--------------------------------------------------------------
$molecule
0 1
--
0 1
O     2.477729308    -0.071662873    -0.195030085
H     2.720187232     0.518852264    -0.912611155
H     2.785696880     0.384663541     0.591916196
--
0 1
Si     0.139484987    -0.015350374    -0.039141303
H     0.579229797     1.261068370    -0.647647841
H     0.509144623    -1.165972307    -0.872749047
H     0.704096210    -0.113004491     1.324885705
O    -1.526364543    -0.071582121     0.025427682
H    -1.952589081     0.608643974     0.548682817
$end

$rem
BASIS = aug-cc-pVTZ
JOB_TYPE  =  BSSE
METHOD  =  MP2
SCF_CONVERGENCE  =  7
SCF_MAX_CYCLES  =  200
$end

--------------------------------------------------------------

             Standard Nuclear Orientation (Angstroms)
    I     Atom           X                Y                Z
 ----------------------------------------------------------------
    1      O      -2.0677687686     0.0438871771     0.0830226266
    2      H      -2.3635157800     0.4144349144    -0.7522286191
    3      H      -2.3258275011    -0.8795978808     0.0287703539
    4      Si      0.2750674557     0.0124554207     0.0123870444
    5      H      -0.2162555011    -0.0270477071    -1.3840161101
    6      H      -0.1398701237     1.2439113777     0.6956322283
    7      H      -0.1950185113    -1.2000212447     0.7179445244
    8      O       1.9419028002     0.0740377492     0.0283046723
    9      H       2.3964707840    -0.6694547600    -0.3701393896
 ----------------------------------------------------------------

    9    -442.2547939240      4.57E-08 Convergence criterion met
 Total energy in the final basis set = -442.25479392
        MP2         total energy =                  -442.91846284 au

                    Orbital Energies (a.u.)
 --------------------------------------------------------------

 Alpha MOs
 -- Occupied --
-68.777 -20.596 -20.537  -6.120  -4.226  -4.226  -4.226  -1.391
 -1.319  -0.751  -0.743  -0.658  -0.616  -0.556  -0.530  -0.498
 -0.452  -0.439

          Ground-State Mulliken Net Atomic Charges

     Atom                 Charge (a.u.)
  ----------------------------------------
      1 O                    -0.404734
      2 H                     0.218314
      3 H                     0.199430
      4 Si                    1.255161
      5 H                    -0.268283
      6 H                    -0.181567
      7 H                    -0.261714
      8 O                    -0.655179
      9 H                     0.098572
  ----------------------------------------
  Sum of atomic charges =     0.000000

                    Cartesian Multipole Moments
 -----------------------------------------------------------------
    Charge (ESU x 10^10)
                 0.0000
    Dipole Moment (Debye)
         X      -2.3885      Y      -2.0396      Z      -1.9704
       Tot       3.7078
    Quadrupole Moments (Debye-Ang)
        XX     -23.5151     XY      -1.4803     YY     -26.0665
        XZ       1.7618     YZ      -0.1997     ZZ     -27.9508

 Total job time:  272.43s(wall), 582.28s(cpu)
        *  Thank you very much for using Q-Chem.  Have a nice day.  *
