 Q-Chem 5.1, Q-Chem, Inc., Pleasanton, CA (2018)
 Q-Chem 5.1.2 for Intel X86 EM64T Linux

User input:
--------------------------------------------------------------

$molecule
0 1
O     2.211620313     0.478466174    -0.303678005
H     2.668387860     1.019102152     0.345793294
H     2.839786115    -0.215073049    -0.521895639
Si    -3.419838271    -0.321568705     0.261327873
H    -3.525589194     1.155712932     0.334398723
H    -4.544141054    -0.922372319     1.004627009
H    -3.528531457    -0.702347533    -1.168111880
O    -2.037004875    -0.884055820     0.963405909
H    -1.204834106    -0.534279736     0.607891710
$end

$rem
BASIS = aug-cc-pVTZ
JOB_TYPE  =  SP
METHOD  =  MP2
SCF_MAX_CYCLES  =  200
$end

--------------------------------------------------------------

    7    -442.2706237076      6.16e-06  Convergence criterion met
 Total energy in the final basis set =     -442.2706237076
        MP2         total energy =                  -442.92496022 au
 Total job time:  46.06s(wall), 271.82s(cpu)
        *  Thank you very much for using Q-Chem.  Have a nice day.  *
 Q-Chem 5.1, Q-Chem, Inc., Pleasanton, CA (2018)
 Q-Chem 5.1.2 for Intel X86 EM64T Linux

User input:
--------------------------------------------------------------

$molecule
0 1
@O     2.211620313     0.478466174    -0.303678005
@H     2.668387860     1.019102152     0.345793294
@H     2.839786115    -0.215073049    -0.521895639
Si    -3.419838271    -0.321568705     0.261327873
H    -3.525589194     1.155712932     0.334398723
H    -4.544141054    -0.922372319     1.004627009
H    -3.528531457    -0.702347533    -1.168111880
O    -2.037004875    -0.884055820     0.963405909
H    -1.204834106    -0.534279736     0.607891710
$end

$rem
BASIS = aug-cc-pVTZ
JOB_TYPE  =  SP
METHOD  =  MP2
SCF_MAX_CYCLES  =  200
$end

--------------------------------------------------------------

    6    -366.2081494526      7.46e-06  Convergence criterion met
 Total energy in the final basis set =     -366.2081494526
        MP2         total energy =                  -366.59380801 au
 Total job time:  40.86s(wall), 243.78s(cpu)
        *  Thank you very much for using Q-Chem.  Have a nice day.  *
 Q-Chem 5.1, Q-Chem, Inc., Pleasanton, CA (2018)
 Q-Chem 5.1.2 for Intel X86 EM64T Linux

User input:
--------------------------------------------------------------

$molecule
0 1
O     2.211620313     0.478466174    -0.303678005
H     2.668387860     1.019102152     0.345793294
H     2.839786115    -0.215073049    -0.521895639
@Si    -3.419838271    -0.321568705     0.261327873
@H    -3.525589194     1.155712932     0.334398723
@H    -4.544141054    -0.922372319     1.004627009
@H    -3.528531457    -0.702347533    -1.168111880
@O    -2.037004875    -0.884055820     0.963405909
@H    -1.204834106    -0.534279736     0.607891710
$end

$rem
BASIS = aug-cc-pVTZ
JOB_TYPE  =  SP
METHOD  =  MP2
SCF_MAX_CYCLES  =  200
$end

--------------------------------------------------------------

             Standard Nuclear Orientation (Angstroms)
    I     Atom           X                Y                Z
 ----------------------------------------------------------------
    1      O       2.2116203130     0.4784661740    -0.3036780050
    2      H       2.6683878600     1.0191021520     0.3457932940
    3      H       2.8397861150    -0.2150730490    -0.5218956390
    4      GH     -3.4198382710    -0.3215687050     0.2613278730
    5      GH     -3.5255891940     1.1557129320     0.3343987230
    6      GH     -4.5441410540    -0.9223723190     1.0046270090
    7      GH     -3.5285314570    -0.7023475330    -1.1681118800
    8      GH     -2.0370048750    -0.8840558200     0.9634059090
    9      GH     -1.2048341060    -0.5342797360     0.6078917100
 ----------------------------------------------------------------

    6     -76.0603638537      6.23e-06  Convergence criterion met
 Total energy in the final basis set =      -76.0603638537
        MP2         total energy =                   -76.32904254 au

                    Orbital Energies (a.u.)
 --------------------------------------------------------------

 Alpha MOs
 -- Occupied --
-20.568  -1.352  -0.716  -0.584  -0.510

          Ground-State Mulliken Net Atomic Charges

     Atom                 Charge (a.u.)
  ----------------------------------------
      1 O                    -0.448481
      2 H                     0.224259
      3 H                     0.224568
      4 GH                   -0.000334
      5 GH                   -0.000066
      6 GH                    0.000008
      7 GH                   -0.000058
      8 GH                    0.000292
      9 GH                   -0.000187
  ----------------------------------------
  Sum of atomic charges =    -0.000000

                    Cartesian Multipole Moments
 -----------------------------------------------------------------
    Charge (ESU x 10^10)
                -0.0000
    Dipole Moment (Debye)
         X       1.8319      Y      -0.2576      Z       0.7275
       Tot       1.9878
    Quadrupole Moments (Debye-Ang)
        XX       2.0977     XY      -0.2132     YY      -5.5845
        XZ       1.4432     YZ       1.8861     ZZ      -6.6807

 Total job time:  37.06s(wall), 221.64s(cpu)
        *  Thank you very much for using Q-Chem.  Have a nice day.  *
