 Q-Chem 5.1, Q-Chem, Inc., Pleasanton, CA (2018)
 Q-Chem 5.1.2 for Intel X86 EM64T Linux

User input:
--------------------------------------------------------------
$molecule
0 1
Si    2.376764240     0.137270735     0.463705189
H     2.850818527    -0.458840989     1.729658577
H     1.788718359     1.464378485     0.699128015
H     3.512521005     0.224749011    -0.476920657
O     1.131720522    -0.774155642    -0.187458262
H     1.331328116    -1.685531717    -0.412871535
Si   -4.405332936     0.341861387    -0.342579775
H    -4.711669420    -1.027635135     0.137898787
H    -5.609542278     0.912604546    -0.975009606
H    -4.044333914     1.154678839     0.844366170
O    -3.218414939     0.352026637    -1.490095496
H    -2.354682168     0.027412088    -1.196089321
$end

$rem
BASIS = aug-cc-pVTZ
JOB_TYPE  =  SP
METHOD  =  MP2
SCF_MAX_CYCLES  =  200
$end

--------------------------------------------------------------

    6    -732.4181429616      7.53e-06  Convergence criterion met
 Total energy in the final basis set =     -732.4181429616
        MP2         total energy =                  -733.18972488 au
 Total job time:  141.75s(wall), 830.42s(cpu)
        *  Thank you very much for using Q-Chem.  Have a nice day.  *
 Q-Chem 5.1, Q-Chem, Inc., Pleasanton, CA (2018)
 Q-Chem 5.1.2 for Intel X86 EM64T Linux

User input:
--------------------------------------------------------------

$molecule
0 1
Si    2.376764240     0.137270735     0.463705189
H     2.850818527    -0.458840989     1.729658577
H     1.788718359     1.464378485     0.699128015
H     3.512521005     0.224749011    -0.476920657
O     1.131720522    -0.774155642    -0.187458262
H     1.331328116    -1.685531717    -0.412871535
@Si   -4.405332936     0.341861387    -0.342579775
@H    -4.711669420    -1.027635135     0.137898787
@H    -5.609542278     0.912604546    -0.975009606
@H    -4.044333914     1.154678839     0.844366170
@O    -3.218414939     0.352026637    -1.490095496
@H    -2.354682168     0.027412088    -1.196089321
$end

$rem
BASIS = aug-cc-pVTZ
JOB_TYPE  =  SP
METHOD  =  MP2
SCF_MAX_CYCLES  =  200
$end

--------------------------------------------------------------

    6    -366.2082169683      5.27e-06  Convergence criterion met
 Total energy in the final basis set =     -366.2082169683
        MP2         total energy =                  -366.59407175 au
 Total job time:  125.04s(wall), 745.46s(cpu)
        *  Thank you very much for using Q-Chem.  Have a nice day.  *
 Q-Chem 5.1, Q-Chem, Inc., Pleasanton, CA (2018)
 Q-Chem 5.1.2 for Intel X86 EM64T Linux

User input:
--------------------------------------------------------------

$molecule
0 1
@Si    2.376764240     0.137270735     0.463705189
@H     2.850818527    -0.458840989     1.729658577
@H     1.788718359     1.464378485     0.699128015
@H     3.512521005     0.224749011    -0.476920657
@O     1.131720522    -0.774155642    -0.187458262
@H     1.331328116    -1.685531717    -0.412871535
Si   -4.405332936     0.341861387    -0.342579775
H    -4.711669420    -1.027635135     0.137898787
H    -5.609542278     0.912604546    -0.975009606
H    -4.044333914     1.154678839     0.844366170
O    -3.218414939     0.352026637    -1.490095496
H    -2.354682168     0.027412088    -1.196089321
$end

$rem
BASIS = aug-cc-pVTZ
JOB_TYPE  =  SP
METHOD  =  MP2
SCF_MAX_CYCLES  =  200
$end

--------------------------------------------------------------

             Standard Nuclear Orientation (Angstroms)
    I     Atom           X                Y                Z
 ----------------------------------------------------------------
    1      GH      2.3767642400     0.1372707350     0.4637051890
    2      GH      2.8508185270    -0.4588409890     1.7296585770
    3      GH      1.7887183590     1.4643784850     0.6991280150
    4      GH      3.5125210050     0.2247490110    -0.4769206570
    5      GH      1.1317205220    -0.7741556420    -0.1874582620
    6      GH      1.3313281160    -1.6855317170    -0.4128715350
    7      Si     -4.4053329360     0.3418613870    -0.3425797750
    8      H      -4.7116694200    -1.0276351350     0.1378987870
    9      H      -5.6095422780     0.9126045460    -0.9750096060
   10      H      -4.0443339140     1.1546788390     0.8443661700
   11      O      -3.2184149390     0.3520266370    -1.4900954960
   12      H      -2.3546821680     0.0274120880    -1.1960893210
 ----------------------------------------------------------------

    6    -366.2082136455      5.56e-06  Convergence criterion met
 Total energy in the final basis set =     -366.2082136455
        MP2         total energy =                  -366.59387024 au

                    Orbital Energies (a.u.)
 --------------------------------------------------------------

 Alpha MOs
 -- Occupied --
-68.796 -20.566  -6.141  -4.247  -4.247  -4.247  -1.346  -0.757
 -0.652  -0.558  -0.555  -0.475  -0.458

          Ground-State Mulliken Net Atomic Charges

     Atom                 Charge (a.u.)
  ----------------------------------------
      1 GH                    0.000179
      2 GH                    0.000074
      3 GH                   -0.000342
      4 GH                    0.000003
      5 GH                    0.002417
      6 GH                   -0.000043
      7 Si                    1.146458
      8 H                    -0.248179
      9 H                    -0.212497
     10 H                    -0.254337
     11 O                    -0.573016
     12 H                     0.139275
  ----------------------------------------
  Sum of atomic charges =    -0.000009

                    Cartesian Multipole Moments
 -----------------------------------------------------------------
    Charge (ESU x 10^10)
                -0.0000
    Dipole Moment (Debye)
         X       0.8816      Y      -0.5325      Z       0.9871
       Tot       1.4266
    Quadrupole Moments (Debye-Ang)
        XX     -25.0133     XY       1.1490     YY     -22.0878
        XZ      -4.0497     YZ       0.9984     ZZ     -24.8434

 Total job time:  123.64s(wall), 736.48s(cpu)
        *  Thank you very much for using Q-Chem.  Have a nice day.  *
