 Q-Chem 5.1, Q-Chem, Inc., Pleasanton, CA (2018)
 Q-Chem 5.1.2 for Intel X86 EM64T Linux

User input:
--------------------------------------------------------------
$molecule
0 1
--
0 1
O     2.477729308    -0.071662873    -0.195030085
H     2.720187232     0.518852264    -0.912611155
H     2.785696880     0.384663541     0.591916196
--
0 1
Si    -3.466135679    -0.024302198     0.186861537
H    -3.026390869     1.252116546    -0.421645002
H    -3.096476044    -1.174924131    -0.646746208
H    -2.901524456    -0.121956315     1.550888544
O    -5.131985209    -0.080533945     0.251430522
H    -5.558209747     0.599692150     0.774685657
$end

$rem
BASIS = aug-cc-pVTZ
JOB_TYPE  =  BSSE
METHOD  =  MP2
SCF_CONVERGENCE  =  7
SCF_MAX_CYCLES  =  200
$end

--------------------------------------------------------------

             Standard Nuclear Orientation (Angstroms)
    I     Atom           X                Y                Z
 ----------------------------------------------------------------
    1      O      -4.6771014916     0.0493363614     0.0874824458
    2      H      -4.9690458793     0.4224339207    -0.7479714726
    3      H      -4.9370012219    -0.8734495240     0.0302058305
    4      Si      1.2785679919     0.0114105135     0.0088830735
    5      H       0.7921487658    -0.0238333165    -1.3893496413
    6      H       0.8639105299     1.2422271953     0.6934489476
    7      H       0.8032921717    -1.2016217154     0.7099947207
    8      O       2.9454676492     0.0692661771     0.0308847716
    9      H       3.3998144863    -0.6743240573    -0.3676291533
 ----------------------------------------------------------------

    6    -442.2687450934      7.26E-08 Convergence criterion met
 Total energy in the final basis set = -442.26874509
        MP2         total energy =                  -442.92302552 au

                    Orbital Energies (a.u.)
 --------------------------------------------------------------

 Alpha MOs
 -- Occupied --
-68.794 -20.569 -20.556  -6.138  -4.245  -4.245  -4.245  -1.354
 -1.336  -0.753  -0.716  -0.646  -0.587  -0.548  -0.548  -0.512
 -0.475  -0.455

          Ground-State Mulliken Net Atomic Charges

     Atom                 Charge (a.u.)
  ----------------------------------------
      1 O                    -0.447244
      2 H                     0.223665
      3 H                     0.223499
      4 Si                    1.065910
      5 H                    -0.220413
      6 H                    -0.167284
      7 H                    -0.217540
      8 O                    -0.575797
      9 H                     0.115204
  ----------------------------------------
  Sum of atomic charges =     0.000000

                    Cartesian Multipole Moments
 -----------------------------------------------------------------
    Charge (ESU x 10^10)
                 0.0000
    Dipole Moment (Debye)
         X      -1.2727      Y      -2.1268      Z      -2.1109
       Tot       3.2556
    Quadrupole Moments (Debye-Ang)
        XX     -20.3193     XY      -0.2628     YY     -25.4826
        XZ       5.0463     YZ      -0.2607     ZZ     -27.4960

 Total job time:  147.03s(wall), 280.54s(cpu)
        *  Thank you very much for using Q-Chem.  Have a nice day.  *
