 Q-Chem 5.1, Q-Chem, Inc., Pleasanton, CA (2018)
 Q-Chem 5.1.2 for Intel X86 EM64T Linux

User input:
--------------------------------------------------------------
$molecule
0 1
--
0 1
O     2.211620313     0.478466174    -0.303678005
H     2.668387860     1.019102152     0.345793294
H     2.839786115    -0.215073049    -0.521895639
--
0 1
Si    -1.776954081    -0.015116159     0.019104085
H    -1.882705004     1.462165478     0.092174936
H    -2.901256864    -0.615919773     0.762403222
H    -1.885647267    -0.395894987    -1.410335667
O    -0.394120685    -0.577603274     0.721182122
H     0.438050084    -0.227827190     0.365667923
$end

$rem
BASIS = aug-cc-pVTZ
JOB_TYPE  =  BSSE
METHOD  =  MP2
SCF_CONVERGENCE  =  7
SCF_MAX_CYCLES  =  200
$end

--------------------------------------------------------------

             Standard Nuclear Orientation (Angstroms)
    I     Atom           X                Y                Z
 ----------------------------------------------------------------
    1      O      -2.5796127020     0.2707577255     0.0179250742
    2      H      -3.0497377685     0.1051328238    -0.8032251159
    3      H      -3.1346209781    -0.1247352580     0.6952425610
    4      Si      1.4521697279     0.2377203747     0.0046410621
    5      H       1.3859430371     1.1985919976    -1.1228443665
    6      H       2.6905960604    -0.5562582252    -0.1111757737
    7      H       1.5024916306     1.0295546838     1.2578652488
    8      O       0.2003538485    -0.8365505788    -0.0161543258
    9      H      -0.6909773451    -0.4540284413     0.0049965891
 ----------------------------------------------------------------

    8    -442.2761866773      5.41E-08 Convergence criterion met
 Total energy in the final basis set = -442.27618668
        MP2         total energy =                  -442.93296555 au

                    Orbital Energies (a.u.)
 --------------------------------------------------------------

 Alpha MOs
 -- Occupied --
-68.781 -20.597 -20.539  -6.125  -4.232  -4.232  -4.232  -1.383
 -1.320  -0.746  -0.740  -0.644  -0.609  -0.541  -0.537  -0.534
 -0.459  -0.441

          Ground-State Mulliken Net Atomic Charges

     Atom                 Charge (a.u.)
  ----------------------------------------
      1 O                    -0.454059
      2 H                     0.221327
      3 H                     0.221497
      4 Si                    1.192516
      5 H                    -0.289039
      6 H                    -0.235880
      7 H                    -0.284701
      8 O                    -0.549183
      9 H                     0.177523
  ----------------------------------------
  Sum of atomic charges =    -0.000000

                    Cartesian Multipole Moments
 -----------------------------------------------------------------
    Charge (ESU x 10^10)
                -0.0000
    Dipole Moment (Debye)
         X      -3.3432      Y       0.2557      Z      -0.1826
       Tot       3.3580
    Quadrupole Moments (Debye-Ang)
        XX     -15.9498     XY       2.9559     YY     -31.4259
        XZ       0.5904     YZ      -0.5230     ZZ     -26.3699

 Total job time:  222.22s(wall), 458.36s(cpu)
        *  Thank you very much for using Q-Chem.  Have a nice day.  *
