 Q-Chem 5.1, Q-Chem, Inc., Pleasanton, CA (2018)
 Q-Chem 5.1.2 for Intel X86 EM64T Linux

User input:
--------------------------------------------------------------
$molecule
0 1
--
0 1
O     2.211620313     0.478466174    -0.303678005
H     2.668387860     1.019102152     0.345793294
H     2.839786115    -0.215073049    -0.521895639
--
0 1
Si    -1.590598502     0.019645355    -0.008371834
H    -1.696349425     1.496926992     0.064699016
H    -2.714901285    -0.581158259     0.734927303
H    -1.699291688    -0.361133473    -1.437811587
O    -0.207765106    -0.542841760     0.693706202
H     0.624405663    -0.193065676     0.338192003
$end

$rem
BASIS = aug-cc-pVTZ
JOB_TYPE  =  BSSE
METHOD  =  MP2
SCF_CONVERGENCE  =  7
SCF_MAX_CYCLES  =  200
$end

--------------------------------------------------------------

             Standard Nuclear Orientation (Angstroms)
    I     Atom           X                Y                Z
 ----------------------------------------------------------------
    1      O      -2.4394031649     0.2801915815     0.0181251134
    2      H      -2.9112370062     0.1192493503    -0.8029761260
    3      H      -2.9979216448    -0.1103514791     0.6954293950
    4      Si      1.4014126143     0.2297844804     0.0045799988
    5      H       1.3438924833     1.1916335502    -1.1225497379
    6      H       2.6323569735    -0.5756636403    -0.1118014723
    7      H       1.4593969184     1.0206685246     1.2580731105
    8      O       0.1396313923    -0.8327621288    -0.0163096030
    9      H      -0.7480901429    -0.4419546526     0.0051807644
 ----------------------------------------------------------------

    9    -442.2756552094      1.87E-08 Convergence criterion met
 Total energy in the final basis set = -442.27565521
        MP2         total energy =                  -442.93343185 au

                    Orbital Energies (a.u.)
 --------------------------------------------------------------

 Alpha MOs
 -- Occupied --
-68.778 -20.602 -20.533  -6.123  -4.229  -4.229  -4.229  -1.391
 -1.315  -0.751  -0.739  -0.651  -0.608  -0.545  -0.532  -0.530
 -0.456  -0.439

          Ground-State Mulliken Net Atomic Charges

     Atom                 Charge (a.u.)
  ----------------------------------------
      1 O                    -0.420562
      2 H                     0.217529
      3 H                     0.217254
      4 Si                    1.192596
      5 H                    -0.290963
      6 H                    -0.245927
      7 H                    -0.286773
      8 O                    -0.538588
      9 H                     0.155435
  ----------------------------------------
  Sum of atomic charges =    -0.000000

                    Cartesian Multipole Moments
 -----------------------------------------------------------------
    Charge (ESU x 10^10)
                -0.0000
    Dipole Moment (Debye)
         X      -3.5105      Y       0.3194      Z      -0.1809
       Tot       3.5296
    Quadrupole Moments (Debye-Ang)
        XX     -16.1112     XY       2.6309     YY     -31.4993
        XZ       0.5529     YZ      -0.5268     ZZ     -26.3823

 Total job time:  230.45s(wall), 490.85s(cpu)
        *  Thank you very much for using Q-Chem.  Have a nice day.  *
