 Q-Chem 5.1, Q-Chem, Inc., Pleasanton, CA (2018)
 Q-Chem 5.1.2 for Intel X86 EM64T Linux

User input:
--------------------------------------------------------------
$molecule
0 1
--
0 1
O     2.211620313     0.478466174    -0.303678005
H     2.668387860     1.019102152     0.345793294
H     2.839786115    -0.215073049    -0.521895639
--
0 1
Si    -1.962010674    -0.049635368     0.046388485
H    -2.067761597     1.427646268     0.119459335
H    -3.086313458    -0.650438983     0.789687622
H    -2.070703860    -0.430414197    -1.383051267
O    -0.579177278    -0.612122484     0.748466521
H     0.252993491    -0.262346400     0.392952323
$end

$rem
BASIS = aug-cc-pVTZ
JOB_TYPE  =  BSSE
METHOD  =  MP2
SCF_CONVERGENCE  =  7
SCF_MAX_CYCLES  =  200
$end

--------------------------------------------------------------

             Standard Nuclear Orientation (Angstroms)
    I     Atom           X                Y                Z
 ----------------------------------------------------------------
    1      O      -2.7185566910     0.2620788581     0.0177468986
    2      H      -3.1871668337     0.0924189143    -0.8034454409
    3      H      -3.2704946808    -0.1376682152     0.6950759156
    4      Si      1.5028368095     0.2447588850     0.0046956789
    5      H       1.4290928462     1.2047210123    -1.1230978222
    6      H       2.7476461957    -0.5392464791    -0.1106322107
    7      H       1.5465230940     1.0373558638     1.2576866077
    8      O       0.2597252737    -0.8395741787    -0.0160176405
    9      H      -0.6346646162    -0.4642429220     0.0048393806
 ----------------------------------------------------------------

    8    -442.2757269509      6.71E-08 Convergence criterion met
 Total energy in the final basis set = -442.27572695
        MP2         total energy =                  -442.93180113 au

                    Orbital Energies (a.u.)
 --------------------------------------------------------------

 Alpha MOs
 -- Occupied --
-68.783 -20.593 -20.544  -6.127  -4.234  -4.234  -4.234  -1.378
 -1.324  -0.742  -0.741  -0.641  -0.609  -0.540  -0.537  -0.537
 -0.461  -0.444

          Ground-State Mulliken Net Atomic Charges

     Atom                 Charge (a.u.)
  ----------------------------------------
      1 O                    -0.456624
      2 H                     0.220280
      3 H                     0.220513
      4 Si                    1.193916
      5 H                    -0.285477
      6 H                    -0.231007
      7 H                    -0.281133
      8 O                    -0.561426
      9 H                     0.180958
  ----------------------------------------
  Sum of atomic charges =     0.000000

                    Cartesian Multipole Moments
 -----------------------------------------------------------------
    Charge (ESU x 10^10)
                 0.0000
    Dipole Moment (Debye)
         X      -3.2159      Y       0.2078      Z      -0.1841
       Tot       3.2279
    Quadrupole Moments (Debye-Ang)
        XX     -15.7634     XY       3.2620     YY     -31.3687
        XZ       0.6278     YZ      -0.5195     ZZ     -26.3604

 Total job time:  239.33s(wall), 504.00s(cpu)
        *  Thank you very much for using Q-Chem.  Have a nice day.  *
