 Q-Chem 5.1, Q-Chem, Inc., Pleasanton, CA (2018)
 Q-Chem 5.1.2 for Intel X86 EM64T Linux

User input:
--------------------------------------------------------------
$molecule
0 1
--
0 1
Si    -1.640187497     0.014756195    -0.076542663
H    -1.249232765     0.430015437    -1.441631202
H    -1.476279169    -1.439058300     0.106937392
H    -0.831012870     0.762824413     0.910049803
O    -3.267604738     0.280116950     0.176348953
H    -3.569749209     1.178548253     0.032578653
--
0 1
Si     2.691701553     0.100703956    -0.012354196
H     3.068112839    -0.170730088     1.391986715
H     2.293498732     1.509333202    -0.172313245
H     3.856834242    -0.193714663    -0.873818771
O     1.360762932    -0.791176885    -0.465282584
H     1.391698112    -1.734679579    -0.293620153
$end

$rem
BASIS = aug-cc-pVTZ
JOB_TYPE  =  BSSE
METHOD  =  MP2
SCF_CONVERGENCE  =  8
SCF_MAX_CYCLES  =  200
$end

--------------------------------------------------------------

             Standard Nuclear Orientation (Angstroms)
    I     Atom           X                Y                Z
 ----------------------------------------------------------------
    1      Si     -1.6966541620    -0.0560876880    -0.0296333660
    2      H      -1.2943726737    -0.0968826454    -1.4527489395
    3      H      -1.4535326952    -1.3514711557     0.6314120791
    4      H      -0.9587580212     1.0285181717     0.6536482334
    5      O      -3.3428727873     0.1744445676     0.1106395560
    6      H      -3.6927532295     0.9520405353    -0.3276162757
    7      Si      2.6197019770     0.3217106895     0.0261159491
    8      H       2.9738274336     0.5596785640     1.4422733353
    9      H       2.1447634214     1.5675610467    -0.5989272435
   10      H       3.8224214871    -0.1689105722    -0.6803500994
   11      O       1.3552906600    -0.7529892458    -0.1090774037
   12      H       1.4363918864    -1.5808985400     0.3690555285
 ----------------------------------------------------------------

    9    -732.4182006892      9.85E-09 Convergence criterion met
 Total energy in the final basis set = -732.41820069
        MP2         total energy =                  -733.19279751 au

                    Orbital Energies (a.u.)
 --------------------------------------------------------------

 Alpha MOs
 -- Occupied --
-68.802 -68.786 -20.569 -20.550  -6.146  -6.130  -4.253  -4.253
 -4.253  -4.236  -4.236  -4.236  -1.350  -1.330  -0.765  -0.746
 -0.659  -0.639  -0.565  -0.561  -0.541  -0.537  -0.481  -0.467
 -0.464  -0.447

          Ground-State Mulliken Net Atomic Charges

     Atom                 Charge (a.u.)
  ----------------------------------------
      1 Si                    1.112935
      2 H                    -0.184674
      3 H                    -0.170013
      4 H                    -0.208068
      5 O                    -0.626909
      6 H                     0.099797
      7 Si                    1.022878
      8 H                    -0.210164
      9 H                    -0.180565
     10 H                    -0.216693
     11 O                    -0.533024
     12 H                     0.094499
  ----------------------------------------
  Sum of atomic charges =    -0.000000

                    Cartesian Multipole Moments
 -----------------------------------------------------------------
    Charge (ESU x 10^10)
                -0.0000
    Dipole Moment (Debye)
         X       1.6493      Y       0.3264      Z      -0.0088
       Tot       1.6813
    Quadrupole Moments (Debye-Ang)
        XX     -43.2121     XY      -6.2985     YY     -38.1092
        XZ       4.4640     YZ      -2.5337     ZZ     -43.2598

 Total job time:  894.07s(wall), 2451.31s(cpu)
        *  Thank you very much for using Q-Chem.  Have a nice day.  *
