 Q-Chem 5.1, Q-Chem, Inc., Pleasanton, CA (2018)
 Q-Chem 5.1.2 for Intel X86 EM64T Linux

User input:
--------------------------------------------------------------
$molecule
0 1
--
0 1
Si     2.376764240     0.137270735     0.463705189
H     2.850818527    -0.458840989     1.729658577
H     1.788718359     1.464378485     0.699128015
H     3.512521005     0.224749011    -0.476920657
O     1.131720522    -0.774155642    -0.187458262
H     1.331328116    -1.685531717    -0.412871535
--
0 1
Si    -2.320526107     0.157762639    -0.006119481
H    -2.626862591    -1.211733883     0.474359080
H    -3.524735449     0.728505798    -0.638549312
H    -1.959527085     0.970580091     1.180826464
O    -1.133608109     0.167927889    -1.153635203
H    -0.269875339    -0.156686660    -0.859629027
$end

$rem
BASIS = aug-cc-pVTZ
JOB_TYPE  =  BSSE
METHOD  =  MP2
SCF_CONVERGENCE  =  7
SCF_MAX_CYCLES  =  200
$end

--------------------------------------------------------------

             Standard Nuclear Orientation (Angstroms)
    I     Atom           X                Y                Z
 ----------------------------------------------------------------
    1      Si     -2.3778420595     0.3086487602     0.1323807259
    2      H      -3.0407029924     1.0718162069    -0.9450725061
    3      H      -1.7632160089     1.2157503106     1.1131143495
    4      H      -3.3757788748    -0.5674277341     0.7796711932
    5      O      -1.1031716743    -0.5891873630    -0.4791349693
    6      H      -1.3146963484    -1.2488730184    -1.1434638288
    7      Si      2.3362374752     0.3375587515    -0.1172391762
    8      H       2.5119582040     0.1117905556    -1.5727024564
    9      H       3.6383586658     0.1777025498     0.5571211012
   10      H       1.8624997464     1.7320565173     0.0582080403
   11      O       1.3109486291    -0.7604370835     0.5674928350
   12      H       0.4018261511    -0.7427249792     0.2342794856
 ----------------------------------------------------------------

    8    -732.4199854358      8.68E-08 Convergence criterion met
 Total energy in the final basis set = -732.41998544
        MP2         total energy =                  -733.19705878 au

                    Orbital Energies (a.u.)
 --------------------------------------------------------------

 Alpha MOs
 -- Occupied --
-68.817 -68.777 -20.594 -20.525  -6.162  -6.121  -4.269  -4.268
 -4.268  -4.228  -4.228  -4.228  -1.380  -1.309  -0.786  -0.742
 -0.684  -0.637  -0.584  -0.569  -0.527  -0.526  -0.497  -0.482
 -0.455  -0.436

          Ground-State Mulliken Net Atomic Charges

     Atom                 Charge (a.u.)
  ----------------------------------------
      1 Si                    0.995999
      2 H                    -0.209223
      3 H                    -0.162462
      4 H                    -0.211694
      5 O                    -0.445564
      6 H                     0.082102
      7 Si                    1.180859
      8 H                    -0.268787
      9 H                    -0.285190
     10 H                    -0.261885
     11 O                    -0.579157
     12 H                     0.165003
  ----------------------------------------
  Sum of atomic charges =    -0.000000

                    Cartesian Multipole Moments
 -----------------------------------------------------------------
    Charge (ESU x 10^10)
                -0.0000
    Dipole Moment (Debye)
         X      -3.3163      Y      -0.0272      Z      -1.6739
       Tot       3.7149
    Quadrupole Moments (Debye-Ang)
        XX     -41.1102     XY       2.7855     YY     -42.2537
        XZ       0.1672     YZ       3.5666     ZZ     -42.4400

 Total job time:  850.30s(wall), 2359.71s(cpu)
        *  Thank you very much for using Q-Chem.  Have a nice day.  *
