 Q-Chem 5.1, Q-Chem, Inc., Pleasanton, CA (2018)
 Q-Chem 5.1.2 for Intel X86 EM64T Linux

User input:
--------------------------------------------------------------
$molecule
0 1
--
0 1
Si     2.376764240     0.137270735     0.463705189
H     2.850818527    -0.458840989     1.729658577
H     1.788718359     1.464378485     0.699128015
H     3.512521005     0.224749011    -0.476920657
O     1.131720522    -0.774155642    -0.187458262
H     1.331328116    -1.685531717    -0.412871535
--
0 1
Si    -2.711469231     0.192284850    -0.069212539
H    -3.017805715    -1.177211672     0.411266022
H    -3.915678573     0.763028008    -0.701642370
H    -2.350470209     1.005102302     1.117733406
O    -1.524551233     0.202450100    -1.216728261
H    -0.660818463    -0.122164449    -0.922722085
$end

$rem
BASIS = aug-cc-pVTZ
JOB_TYPE  =  BSSE
METHOD  =  MP2
SCF_CONVERGENCE  =  7
SCF_MAX_CYCLES  =  200
$end

--------------------------------------------------------------

             Standard Nuclear Orientation (Angstroms)
    I     Atom           X                Y                Z
 ----------------------------------------------------------------
    1      Si     -2.5755531917     0.3080147664     0.1425018044
    2      H      -3.2470506661     1.0717099248    -0.9292143344
    3      H      -1.9541082430     1.2146423963     1.1193689200
    4      H      -3.5679895219    -0.5692962671     0.7965418194
    5      O      -1.3049663373    -0.5884358175    -0.4794556992
    6      H      -1.5210864819    -1.2476657881    -1.1427569989
    7      Si      2.5336440742     0.3381514521    -0.1264643483
    8      H       2.6984848548     0.1138009988    -1.5834189818
    9      H       3.8409383597     0.1785480034     0.5378727446
   10      H       2.0603414288     1.7321799861     0.0538194080
   11      O       1.5142844078    -0.7611302614     0.5650236006
   12      H       0.6026533508    -0.7437176822     0.2387198266
 ----------------------------------------------------------------

    8    -732.4233174274      8.84E-08 Convergence criterion met
 Total energy in the final basis set = -732.42331743
        MP2         total energy =                  -733.19768305 au

                    Orbital Energies (a.u.)
 --------------------------------------------------------------

 Alpha MOs
 -- Occupied --
-68.812 -68.782 -20.585 -20.540  -6.157  -6.127  -4.263  -4.263
 -4.263  -4.234  -4.234  -4.233  -1.365  -1.322  -0.777  -0.741
 -0.672  -0.636  -0.573  -0.573  -0.538  -0.535  -0.492  -0.476
 -0.461  -0.443

          Ground-State Mulliken Net Atomic Charges

     Atom                 Charge (a.u.)
  ----------------------------------------
      1 Si                    0.989315
      2 H                    -0.205238
      3 H                    -0.165365
      4 H                    -0.210938
      5 O                    -0.514147
      6 H                     0.088093
      7 Si                    1.181170
      8 H                    -0.270546
      9 H                    -0.256724
     10 H                    -0.267871
     11 O                    -0.581702
     12 H                     0.213953
  ----------------------------------------
  Sum of atomic charges =     0.000000

                    Cartesian Multipole Moments
 -----------------------------------------------------------------
    Charge (ESU x 10^10)
                 0.0000
    Dipole Moment (Debye)
         X      -2.9254      Y      -0.0158      Z      -1.5710
       Tot       3.3206
    Quadrupole Moments (Debye-Ang)
        XX     -40.8819     XY       3.0161     YY     -42.2773
        XZ       0.1860     YZ       3.4265     ZZ     -42.4510

 Total job time:  788.31s(wall), 2199.66s(cpu)
        *  Thank you very much for using Q-Chem.  Have a nice day.  *
