 Q-Chem 5.1, Q-Chem, Inc., Pleasanton, CA (2018)
 Q-Chem 5.1.2 for Intel X86 EM64T Linux

User input:
--------------------------------------------------------------
$molecule
0 1
--
0 1
Si     2.376764240     0.137270735     0.463705189
H     2.850818527    -0.458840989     1.729658577
H     1.788718359     1.464378485     0.699128015
H     3.512521005     0.224749011    -0.476920657
O     1.131720522    -0.774155642    -0.187458262
H     1.331328116    -1.685531717    -0.412871535
--
0 1
Si    -2.119575882     0.140017741     0.026311232
H    -2.425912366    -1.229478781     0.506789793
H    -3.323785224     0.710760900    -0.606118599
H    -1.758576860     0.952835193     1.213257177
O    -0.932657885     0.150182991    -1.121204490
H    -0.068925114    -0.174431558    -0.827198314
$end

$rem
BASIS = aug-cc-pVTZ
JOB_TYPE  =  BSSE
METHOD  =  MP2
SCF_CONVERGENCE  =  7
SCF_MAX_CYCLES  =  200
$end

--------------------------------------------------------------

             Standard Nuclear Orientation (Angstroms)
    I     Atom           X                Y                Z
 ----------------------------------------------------------------
    1      Si     -2.2763087745     0.3090188379     0.1263514367
    2      H      -2.9337321263     1.0718702082    -0.9546513192
    3      H      -1.6659964090     1.2164032921     1.1095142483
    4      H      -3.2776621408    -0.5663169487     0.7693534248
    5      O      -0.9990994814    -0.5896475900    -0.4786120443
    6      H      -1.2077224466    -1.2496056583    -1.1435876016
    7      Si      2.2348891619     0.3372130560    -0.1117531136
    8      H       2.4174440518     0.1105956489    -1.5662429471
    9      H       3.5337231126     0.1772046267     0.5688811899
   10      H       1.7608755960     1.7319914019     0.0606930684
   11      O       1.2059178093    -0.7600111687     0.5686783322
   12      H       0.2983983162    -0.7421190159     0.2311331097
 ----------------------------------------------------------------

    9    -732.4119167224      6.73E-08 Convergence criterion met
 Total energy in the final basis set = -732.41191672
        MP2         total energy =                  -733.19119260 au

                    Orbital Energies (a.u.)
 --------------------------------------------------------------

 Alpha MOs
 -- Occupied --
-68.820 -68.773 -20.600 -20.512  -6.165  -6.117  -4.272  -4.272
 -4.272  -4.224  -4.224  -4.224  -1.393  -1.300  -0.793  -0.751
 -0.689  -0.641  -0.593  -0.560  -0.520  -0.519  -0.499  -0.486
 -0.449  -0.431

          Ground-State Mulliken Net Atomic Charges

     Atom                 Charge (a.u.)
  ----------------------------------------
      1 Si                    0.998104
      2 H                    -0.214913
      3 H                    -0.161904
      4 H                    -0.216111
      5 O                    -0.347998
      6 H                     0.069344
      7 Si                    1.197784
      8 H                    -0.269010
      9 H                    -0.311525
     10 H                    -0.262451
     11 O                    -0.600601
     12 H                     0.119280
  ----------------------------------------
  Sum of atomic charges =    -0.000000

                    Cartesian Multipole Moments
 -----------------------------------------------------------------
    Charge (ESU x 10^10)
                -0.0000
    Dipole Moment (Debye)
         X      -3.6009      Y      -0.0391      Z      -1.7641
       Tot       4.0100
    Quadrupole Moments (Debye-Ang)
        XX     -41.2957     XY       2.6751     YY     -42.2324
        XZ       0.1325     YZ       3.6833     ZZ     -42.4419

 Total job time:  892.81s(wall), 2520.98s(cpu)
        *  Thank you very much for using Q-Chem.  Have a nice day.  *
