 Q-Chem 5.1, Q-Chem, Inc., Pleasanton, CA (2018)
 Q-Chem 5.1.2 for Intel X86 EM64T Linux

User input:
--------------------------------------------------------------
$molecule
0 1
--
0 1
Si     1.877277124    -0.264555006    -0.002147324
H     1.013054241     0.893525003     0.332506176
H     1.752218881    -1.299809326     1.036281626
H     1.434006711    -0.793004013    -1.311922261
O     3.481273335     0.161191906    -0.019552128
H     3.741996224     0.827557153    -0.657431446
--
0 1
Si    -1.483516622     0.234581583     0.039693908
H    -0.612414534    -0.954263034     0.206134735
H    -1.363560676     1.111952588     1.215160816
H    -1.044466292     0.946667021    -1.181527835
O    -3.085059987    -0.193568370    -0.038300730
H    -3.343186897    -0.760466105    -0.766944820
$end

$rem
BASIS = aug-cc-pVTZ
JOB_TYPE  =  BSSE
METHOD  =  MP2
SCF_CONVERGENCE  =  7
SCF_MAX_CYCLES  =  200
$end

--------------------------------------------------------------

             Standard Nuclear Orientation (Angstroms)
    I     Atom           X                Y                Z
 ----------------------------------------------------------------
    1      Si      1.6810217437    -0.2412176880     0.0399816998
    2      H       0.8111996758     0.9355751637     0.2820387555
    3      H       1.5588462951    -1.1927194370     1.1559760263
    4      H       1.2421599551    -0.8723784492    -1.2250455022
    5      O       3.2831624931     0.1890708896    -0.0086389158
    6      H       3.5419791776     0.8047221651    -0.6963136372
    7      Si     -1.6819895457     0.2445554074     0.0385008091
    8      H      -0.8059523404    -0.9237231408     0.2984180434
    9      H      -1.5677536971     1.2116207299     1.1419619974
   10      H      -1.2441177920     0.8610077561    -1.2340824840
   11      O      -3.2815148650    -0.1955719726    -0.0077953920
   12      H      -3.5359930714    -0.8188241950    -0.6902338604
 ----------------------------------------------------------------

    8    -732.4107886257      4.41E-08 Convergence criterion met
 Total energy in the final basis set = -732.41078863
        MP2         total energy =                  -733.19022918 au

                    Orbital Energies (a.u.)
 --------------------------------------------------------------

 Alpha MOs
 -- Occupied --
-68.799 -68.799 -20.563 -20.563  -6.144  -6.143  -4.250  -4.250
 -4.250  -4.250  -4.250  -4.250  -1.344  -1.344  -0.772  -0.754
 -0.674  -0.636  -0.564  -0.560  -0.552  -0.547  -0.484  -0.475
 -0.461  -0.459

          Ground-State Mulliken Net Atomic Charges

     Atom                 Charge (a.u.)
  ----------------------------------------
      1 Si                    1.236921
      2 H                    -0.260593
      3 H                    -0.210320
      4 H                    -0.238411
      5 O                    -0.634018
      6 H                     0.106613
      7 Si                    1.234185
      8 H                    -0.259825
      9 H                    -0.210394
     10 H                    -0.237616
     11 O                    -0.633419
     12 H                     0.106879
  ----------------------------------------
  Sum of atomic charges =     0.000000

                    Cartesian Multipole Moments
 -----------------------------------------------------------------
    Charge (ESU x 10^10)
                 0.0000
    Dipole Moment (Debye)
         X       0.0034      Y      -0.0078      Z      -2.1640
       Tot       2.1640
    Quadrupole Moments (Debye-Ang)
        XX     -47.7014     XY       6.6342     YY     -40.6360
        XZ      -0.0431     YZ       0.0095     ZZ     -41.1813

 Total job time:  875.37s(wall), 2412.22s(cpu)
        *  Thank you very much for using Q-Chem.  Have a nice day.  *
