 Q-Chem 5.1, Q-Chem, Inc., Pleasanton, CA (2018)
 Q-Chem 5.1.2 for Intel X86 EM64T Linux

User input:
--------------------------------------------------------------
$molecule
0 1
--
0 1
O     2.211620313     0.478466174    -0.303678005
H     2.668387860     1.019102152     0.345793294
H     2.839786115    -0.215073049    -0.521895639
--
0 1
Si    -1.496795413     0.037142751    -0.022201987
H    -1.602546336     1.514424388     0.050868863
H    -2.621098197    -0.563660863     0.721097150
H    -1.605488599    -0.343636077    -1.451641740
O    -0.113962017    -0.525344364     0.679876049
H     0.718208752    -0.175568280     0.324361850
$end

$rem
BASIS = aug-cc-pVTZ
JOB_TYPE  =  BSSE
METHOD  =  MP2
SCF_CONVERGENCE  =  7
SCF_MAX_CYCLES  =  200
$end

--------------------------------------------------------------

             Standard Nuclear Orientation (Angstroms)
    I     Atom           X                Y                Z
 ----------------------------------------------------------------
    1      O      -2.3686968497     0.2852202817     0.0182348025
    2      H      -2.8414681481     0.1269099725    -0.8028388643
    3      H      -2.9291631949    -0.1025350802     0.6955317239
    4      Si      1.3759766051     0.2254234629     0.0045466293
    5      H       1.3233412216     1.1877857727    -1.1223836893
    6      H       2.6026813184    -0.5864216245    -0.1121514441
    7      H       1.4382495348     1.0157425625     1.2581903327
    8      O       0.1086584948    -0.8305120258    -0.0163955580
    9      H      -0.7770063644    -0.4350761316     0.0052851753
 ----------------------------------------------------------------

    8    -442.2746322398      7.89E-08 Convergence criterion met
 Total energy in the final basis set = -442.27463224
        MP2         total energy =                  -442.93305424 au

                    Orbital Energies (a.u.)
 --------------------------------------------------------------

 Alpha MOs
 -- Occupied --
-68.777 -20.605 -20.529  -6.121  -4.228  -4.228  -4.228  -1.395
 -1.312  -0.755  -0.739  -0.656  -0.607  -0.546  -0.530  -0.527
 -0.454  -0.437

          Ground-State Mulliken Net Atomic Charges

     Atom                 Charge (a.u.)
  ----------------------------------------
      1 O                    -0.388883
      2 H                     0.212918
      3 H                     0.212543
      4 Si                    1.194812
      5 H                    -0.291435
      6 H                    -0.253692
      7 H                    -0.287377
      8 O                    -0.535482
      9 H                     0.136597
  ----------------------------------------
  Sum of atomic charges =    -0.000000

                    Cartesian Multipole Moments
 -----------------------------------------------------------------
    Charge (ESU x 10^10)
                -0.0000
    Dipole Moment (Debye)
         X      -3.6130      Y       0.3594      Z      -0.1799
       Tot       3.6353
    Quadrupole Moments (Debye-Ang)
        XX     -16.1810     XY       2.4598     YY     -31.5444
        XZ       0.5342     YZ      -0.5290     ZZ     -26.3898

 Total job time:  229.39s(wall), 479.62s(cpu)
        *  Thank you very much for using Q-Chem.  Have a nice day.  *
