 Q-Chem 5.1, Q-Chem, Inc., Pleasanton, CA (2018)
 Q-Chem 5.1.2 for Intel X86 EM64T Linux

User input:
--------------------------------------------------------------
$molecule
0 1
--
0 1
O     2.477729308    -0.071662873    -0.195030085
H     2.720187232     0.518852264    -0.912611155
H     2.785696880     0.384663541     0.591916196
--
0 1
Si    -0.453708778    -0.016823120    -0.001959500
H    -0.013963969     1.259595623    -0.610466039
H    -0.084049143    -1.167445054    -0.835567245
H     0.110902444    -0.114477238     1.362067507
O    -2.119558308    -0.073054868     0.062609485
H    -2.545782846     0.607171227     0.585864620
$end

$rem
BASIS = aug-cc-pVTZ
JOB_TYPE  =  BSSE
METHOD  =  MP2
SCF_CONVERGENCE  =  7
SCF_MAX_CYCLES  =  200
$end

--------------------------------------------------------------

             Standard Nuclear Orientation (Angstroms)
    I     Atom           X                Y                Z
 ----------------------------------------------------------------
    1      O      -2.4970441723     0.0453145000     0.0844662539
    2      H      -2.7917736285     0.4166131797    -0.7508111863
    3      H      -2.7558883389    -0.8779064366     0.0294656147
    4      Si      0.4401638248     0.0123485417     0.0114229223
    5      H      -0.0500502854    -0.0259015582    -1.3854047581
    6      H       0.0257737001     1.2437800713     0.6950442837
    7      H      -0.0315896439    -1.2001145151     0.7158899797
    8      O       2.1070402493     0.0724225679     0.0287410279
    9      H       2.5612660333    -0.6712468687    -0.3697630997
 ----------------------------------------------------------------

    8    -442.2693382377      8.56E-08 Convergence criterion met
 Total energy in the final basis set = -442.26933824
        MP2         total energy =                  -442.92723336 au

                    Orbital Energies (a.u.)
 --------------------------------------------------------------

 Alpha MOs
 -- Occupied --
-68.783 -20.580 -20.547  -6.127  -4.234  -4.233  -4.233  -1.367
 -1.327  -0.744  -0.729  -0.640  -0.600  -0.544  -0.539  -0.516
 -0.463  -0.446

          Ground-State Mulliken Net Atomic Charges

     Atom                 Charge (a.u.)
  ----------------------------------------
      1 O                    -0.459024
      2 H                     0.220518
      3 H                     0.213701
      4 Si                    1.114462
      5 H                    -0.211852
      6 H                    -0.136733
      7 H                    -0.204184
      8 O                    -0.638004
      9 H                     0.101116
  ----------------------------------------
  Sum of atomic charges =     0.000000

                    Cartesian Multipole Moments
 -----------------------------------------------------------------
    Charge (ESU x 10^10)
                 0.0000
    Dipole Moment (Debye)
         X      -1.7299      Y      -2.0657      Z      -2.0141
       Tot       3.3639
    Quadrupole Moments (Debye-Ang)
        XX     -23.4853     XY      -1.2678     YY     -25.7073
        XZ       2.2909     YZ      -0.2251     ZZ     -27.6705

 Total job time:  252.67s(wall), 511.71s(cpu)
        *  Thank you very much for using Q-Chem.  Have a nice day.  *
