 Q-Chem 5.1, Q-Chem, Inc., Pleasanton, CA (2018)
 Q-Chem 5.1.2 for Intel X86 EM64T Linux

User input:
--------------------------------------------------------------
$molecule
0 1
--
0 1
Si    -1.640187497     0.014756195    -0.076542663
H    -1.249232765     0.430015437    -1.441631202
H    -1.476279169    -1.439058300     0.106937392
H    -0.831012870     0.762824413     0.910049803
O    -3.267604738     0.280116950     0.176348953
H    -3.569749209     1.178548253     0.032578653
--
0 1
Si     2.552799815     0.111278182    -0.007141916
H     2.929211100    -0.160155862     1.397198995
H     2.154596993     1.519907428    -0.167100965
H     3.717932503    -0.183140437    -0.868606492
O     1.221861194    -0.780602659    -0.460070304
H     1.252796374    -1.724105353    -0.288407874
$end

$rem
BASIS = aug-cc-pVTZ
JOB_TYPE  =  BSSE
METHOD  =  MP2
SCF_CONVERGENCE  =  8
SCF_MAX_CYCLES  =  200
$end

--------------------------------------------------------------

             Standard Nuclear Orientation (Angstroms)
    I     Atom           X                Y                Z
 ----------------------------------------------------------------
    1      Si     -1.6270421192    -0.0554961358    -0.0297523519
    2      H      -1.2249706787    -0.0966915082    -1.4529157500
    3      H      -1.3854510488    -1.3512250735     0.6311770931
    4      H      -0.8877269589     1.0281481855     0.6535209524
    5      O      -3.2729582938     0.1770649273     0.1107206853
    6      H      -3.6219245448     0.9551236709    -0.3274426793
    7      Si      2.5504177672     0.3199761057     0.0261497899
    8      H       2.9049960805     0.5574080145     1.4422838226
    9      H       2.0769524736     1.5664565726    -0.5987548421
   10      H       3.7524497362    -0.1720856706    -0.6804845378
   11      O       1.2846614248    -0.7531479184    -0.1089756427
   12      H       1.3647908226    -1.5811898420     0.3690914669
 ----------------------------------------------------------------

   10    -732.4176223794      4.82E-09 Convergence criterion met
 Total energy in the final basis set = -732.41762238
        MP2         total energy =                  -733.19302878 au

                    Orbital Energies (a.u.)
 --------------------------------------------------------------

 Alpha MOs
 -- Occupied --
-68.802 -68.785 -20.570 -20.549  -6.147  -6.129  -4.254  -4.254
 -4.253  -4.235  -4.235  -4.235  -1.352  -1.329  -0.766  -0.745
 -0.660  -0.638  -0.567  -0.563  -0.540  -0.534  -0.482  -0.467
 -0.463  -0.445

          Ground-State Mulliken Net Atomic Charges

     Atom                 Charge (a.u.)
  ----------------------------------------
      1 Si                    1.133056
      2 H                    -0.182344
      3 H                    -0.173097
      4 H                    -0.210357
      5 O                    -0.635854
      6 H                     0.101282
      7 Si                    1.027750
      8 H                    -0.209477
      9 H                    -0.179708
     10 H                    -0.226611
     11 O                    -0.536441
     12 H                     0.091802
  ----------------------------------------
  Sum of atomic charges =     0.000000

                    Cartesian Multipole Moments
 -----------------------------------------------------------------
    Charge (ESU x 10^10)
                 0.0000
    Dipole Moment (Debye)
         X       1.7209      Y       0.3131      Z      -0.0151
       Tot       1.7492
    Quadrupole Moments (Debye-Ang)
        XX     -43.3326     XY      -6.1604     YY     -38.1100
        XZ       4.3494     YZ      -2.5250     ZZ     -43.2739

 Total job time:  926.93s(wall), 2509.72s(cpu)
        *  Thank you very much for using Q-Chem.  Have a nice day.  *
