 Q-Chem 5.1, Q-Chem, Inc., Pleasanton, CA (2018)
 Q-Chem 5.1.2 for Intel X86 EM64T Linux

User input:
--------------------------------------------------------------
$molecule
0 1
--
0 1
Si    -1.640187497     0.014756195    -0.076542663
H    -1.249232765     0.430015437    -1.441631202
H    -1.476279169    -1.439058300     0.106937392
H    -0.831012870     0.762824413     0.910049803
O    -3.267604738     0.280116950     0.176348953
H    -3.569749209     1.178548253     0.032578653
--
0 1
Si     2.830532049     0.090135153    -0.017563803
H     3.206943334    -0.181298890     1.386777109
H     2.432329228     1.498764399    -0.177522851
H     3.995664737    -0.204283466    -0.879028378
O     1.499593428    -0.801745688    -0.470492190
H     1.530528608    -1.745248382    -0.298829760
$end

$rem
BASIS = aug-cc-pVTZ
JOB_TYPE  =  BSSE
METHOD  =  MP2
SCF_CONVERGENCE  =  8
SCF_MAX_CYCLES  =  200
$end

--------------------------------------------------------------

             Standard Nuclear Orientation (Angstroms)
    I     Atom           X                Y                Z
 ----------------------------------------------------------------
    1      Si     -1.7662374120    -0.0566708803    -0.0295215232
    2      H      -1.3637576433    -0.0971019102    -1.4525914187
    3      H      -1.5217157113    -1.3517342322     0.6316346678
    4      H      -1.0296465613     1.0288168997     0.6537679672
    5      O      -3.4127317726     0.1720008560     0.1105603586
    6      H      -3.7634481854     0.9491703534    -0.3277837494
    7      Si      2.6889833493     0.3233417415     0.0260853833
    8      H       3.0426868580     0.5618041230     1.4422650374
    9      H       2.2126971118     1.5686111032    -0.5990900907
   10      H       3.8923348098    -0.1659594745    -0.6802200040
   11      O       1.4258077929    -0.7528022600    -0.1091727879
   12      H       1.5077980377    -1.5805876868     0.3690229835
 ----------------------------------------------------------------

    9    -732.4184428725      3.67E-09 Convergence criterion met
 Total energy in the final basis set = -732.41844287
        MP2         total energy =                  -733.19238986 au

                    Orbital Energies (a.u.)
 --------------------------------------------------------------

 Alpha MOs
 -- Occupied --
-68.801 -68.787 -20.568 -20.551  -6.146  -6.131  -4.253  -4.252
 -4.252  -4.237  -4.237  -4.237  -1.349  -1.331  -0.764  -0.746
 -0.657  -0.639  -0.563  -0.560  -0.542  -0.539  -0.481  -0.467
 -0.464  -0.448

          Ground-State Mulliken Net Atomic Charges

     Atom                 Charge (a.u.)
  ----------------------------------------
      1 Si                    1.091741
      2 H                    -0.186532
      3 H                    -0.167041
      4 H                    -0.204441
      5 O                    -0.618813
      6 H                     0.098932
      7 Si                    1.020697
      8 H                    -0.209899
      9 H                    -0.181360
     10 H                    -0.210823
     11 O                    -0.529471
     12 H                     0.097011
  ----------------------------------------
  Sum of atomic charges =     0.000000

                    Cartesian Multipole Moments
 -----------------------------------------------------------------
    Charge (ESU x 10^10)
                 0.0000
    Dipole Moment (Debye)
         X       1.5917      Y       0.3370      Z      -0.0031
       Tot       1.6269
    Quadrupole Moments (Debye-Ang)
        XX     -43.1026     XY      -6.4378     YY     -38.1081
        XZ       4.5792     YZ      -2.5401     ZZ     -43.2484

 Total job time:  859.21s(wall), 2340.54s(cpu)
        *  Thank you very much for using Q-Chem.  Have a nice day.  *
