 Q-Chem 5.1, Q-Chem, Inc., Pleasanton, CA (2018)
 Q-Chem 5.1.2 for Intel X86 EM64T Linux

User input:
--------------------------------------------------------------
$molecule
0 1
--
0 1
Si    -1.603238946    -0.037666475    -0.093158434
H    -1.351489209     0.587977452    -1.416517664
H    -1.362259228    -1.490505278    -0.207462190
H    -0.720166038     0.598793029     0.904338035
N    -3.226075392     0.145065116     0.503430997
H    -3.972557755    -0.323149309     0.014787982
H    -3.532381265     1.064684992     0.778721563
--
0 1
Si     3.023112732     0.219190003     0.167632236
H     4.478911140     0.107723949    -0.105584706
H     2.760702708    -0.414655871     1.476134677
H     2.680427113     1.656039852     0.201687810
N     1.981249280    -0.538427096    -0.998614516
H     1.998413950    -1.544797080    -1.065064305
H     1.942782611    -0.143788653    -1.925844880
$end

$rem
BASIS = aug-cc-pVTZ
JOB_TYPE  =  BSSE
METHOD  =  MP2
SCF_CONVERGENCE  =  8
SCF_MAX_CYCLES  =  200
$end

--------------------------------------------------------------

             Standard Nuclear Orientation (Angstroms)
    I     Atom           X                Y                Z
 ----------------------------------------------------------------
    1      Si     -1.8696387376    -0.1329243663    -0.0294608029
    2      H      -1.5474381299    -0.8787251665    -1.2728657410
    3      H      -1.6124078483    -1.0151905038     1.1269629485
    4      H      -1.0491703099     1.0939344867     0.0098657861
    5      N      -3.5250040853     0.3815751778     0.1045679197
    6      H      -4.2392103631    -0.3216017462     0.2079326547
    7      H      -3.8528814735     1.1012821026    -0.5197935626
    8      Si      2.7324970614     0.4631349211     0.0171898756
    9      H       4.2022167013     0.2487901147    -0.0028517686
   10      H       2.4005555870     1.1914935779     1.2590057941
   11      H       2.3784011378     1.2645024617    -1.1725818865
   12      N       1.7639387563    -0.9791782591    -0.0177687819
   13      H       1.7918827821    -1.5873935259     0.7864600821
   14      H       1.7754926869    -1.5368179991    -0.8579352893
 ----------------------------------------------------------------

    9    -692.7018874714      6.45E-09 Convergence criterion met
 Total energy in the final basis set = -692.70188747
        MP2         total energy =                  -693.42397772 au

                    Orbital Energies (a.u.)
 --------------------------------------------------------------

 Alpha MOs
 -- Occupied --
-68.779 -68.771 -15.539 -15.530  -6.125  -6.117  -4.232  -4.231
 -4.231  -4.224  -4.224  -4.223  -1.137  -1.128  -0.721  -0.713
 -0.656  -0.648  -0.553  -0.544  -0.493  -0.484  -0.476  -0.470
 -0.405  -0.395

          Ground-State Mulliken Net Atomic Charges

     Atom                 Charge (a.u.)
  ----------------------------------------
      1 Si                    1.065356
      2 H                    -0.287504
      3 H                    -0.230375
      4 H                    -0.223432
      5 N                    -0.567638
      6 H                     0.116117
      7 H                     0.120398
      8 Si                    1.028478
      9 H                    -0.373661
     10 H                    -0.262444
     11 H                    -0.259995
     12 N                    -0.324106
     13 H                     0.099220
     14 H                     0.099586
  ----------------------------------------
  Sum of atomic charges =     0.000000

                    Cartesian Multipole Moments
 -----------------------------------------------------------------
    Charge (ESU x 10^10)
                 0.0000
    Dipole Moment (Debye)
         X      -0.2048      Y      -1.3349      Z      -0.8047
       Tot       1.5721
    Quadrupole Moments (Debye-Ang)
        XX     -40.1973     XY      -1.4865     YY     -41.7297
        XZ       3.2208     YZ      -1.7535     ZZ     -44.4358

 Total job time:  1195.56s(wall), 3239.35s(cpu)
        *  Thank you very much for using Q-Chem.  Have a nice day.  *
