 Q-Chem 5.1, Q-Chem, Inc., Pleasanton, CA (2018)
 Q-Chem 5.1.2 for Intel X86 EM64T Linux

User input:
--------------------------------------------------------------
$molecule
0 1
--
0 1
O     2.727262800     0.140250979     0.206246615
H     2.747771752     1.047748175    -0.107062323
H     2.825602485    -0.377966203    -0.596211209
--
0 1
Si    -0.668525238    -0.033067208     0.178565846
H    -0.247433586    -0.363730178     1.559287586
H    -0.207266456     1.334723514    -0.142054120
H    -0.087429677    -1.027137316    -0.748227300
N    -2.383840351    -0.049259023    -0.104552934
H    -2.947234648     0.646089763     0.358938139
H    -2.859496597    -0.937104925    -0.069367325
$end

$rem
BASIS = aug-cc-pVTZ
JOB_TYPE  =  BSSE
METHOD  =  MP2
SCF_CONVERGENCE  =  7
SCF_MAX_CYCLES  =  200
$end

--------------------------------------------------------------

             Standard Nuclear Orientation (Angstroms)
    I     Atom           X                Y                Z
 ----------------------------------------------------------------
    1      O       2.8699947751    -0.0060677070     0.0661493345
    2      H       2.9323503170     0.7733635272    -0.4912849720
    3      H       2.9297549270    -0.7345154016    -0.5567077768
    4      Si     -0.5302504604     0.0012776541     0.0876016557
    5      H      -0.1062683913     0.0525451848     1.5055789291
    6      H      -0.0042887442     1.1959543990    -0.6070349644
    7      H      -0.0146521276    -1.2438086270    -0.5196145149
    8      N      -2.2481435747    -0.0027739462    -0.1798888817
    9      H      -2.7682347754     0.8242782305     0.0675719895
   10      H      -2.7681079374    -0.8177451910     0.1050956247
 ----------------------------------------------------------------

    8    -422.4115166501      4.11E-08 Convergence criterion met
 Total energy in the final basis set = -422.41151665
        MP2         total energy =                  -423.04202134 au

                    Orbital Energies (a.u.)
 --------------------------------------------------------------

 Alpha MOs
 -- Occupied --
-68.773 -20.570 -15.531  -6.119  -4.225  -4.225  -4.225  -1.355
 -1.130  -0.716  -0.715  -0.649  -0.589  -0.547  -0.512  -0.486
 -0.472  -0.397

          Ground-State Mulliken Net Atomic Charges

     Atom                 Charge (a.u.)
  ----------------------------------------
      1 O                    -0.473768
      2 H                     0.228485
      3 H                     0.228060
      4 Si                    1.095917
      5 H                    -0.272576
      6 H                    -0.259715
      7 H                    -0.254937
      8 N                    -0.535250
      9 H                     0.122022
     10 H                     0.121762
  ----------------------------------------
  Sum of atomic charges =     0.000000

                    Cartesian Multipole Moments
 -----------------------------------------------------------------
    Charge (ESU x 10^10)
                 0.0000
    Dipole Moment (Debye)
         X      -0.3790      Y       0.0984      Z      -0.9459
       Tot       1.0237
    Quadrupole Moments (Debye-Ang)
        XX     -25.0405     XY       0.1864     YY     -25.2700
        XZ      -8.6273     YZ       0.0033     ZZ     -30.4418

 Total job time:  277.38s(wall), 566.87s(cpu)
        *  Thank you very much for using Q-Chem.  Have a nice day.  *
