 Q-Chem 5.1, Q-Chem, Inc., Pleasanton, CA (2018)
 Q-Chem 5.1.2 for Intel X86 EM64T Linux

User input:
--------------------------------------------------------------
$molecule
0 1
--
0 1
Si    -1.603238946    -0.037666475    -0.093158434
H    -1.351489209     0.587977452    -1.416517664
H    -1.362259228    -1.490505278    -0.207462190
H    -0.720166038     0.598793029     0.904338035
N    -3.226075392     0.145065116     0.503430997
H    -3.972557755    -0.323149309     0.014787982
H    -3.532381265     1.064684992     0.778721563
--
0 1
Si     3.930196663     0.206679245     0.107051776
H     5.385995071     0.095213191    -0.166165166
H     3.667786639    -0.427166629     1.415554217
H     3.587511044     1.643529094     0.141107350
N     2.888333211    -0.550937854    -1.059194976
H     2.905497881    -1.557307838    -1.125644765
H     2.849866542    -0.156299411    -1.986425340
$end

$rem
BASIS = aug-cc-pVTZ
JOB_TYPE  =  BSSE
METHOD  =  MP2
SCF_CONVERGENCE  =  8
SCF_MAX_CYCLES  =  200
$end

--------------------------------------------------------------

             Standard Nuclear Orientation (Angstroms)
    I     Atom           X                Y                Z
 ----------------------------------------------------------------
    1      Si     -2.3237518322    -0.1356084604    -0.0289020868
    2      H      -1.9993216625    -0.8801905689    -1.2724576560
    3      H      -2.0631039441    -1.0170569646     1.1273800472
    4      H      -1.5075539370     1.0941004553     0.0102724615
    5      N      -3.9808610093     0.3731070671     0.1056549696
    6      H      -4.6925808116    -0.3325630704     0.2091790837
    7      H      -4.3114305402     1.0917121682    -0.5185560475
    8      Si      3.1854500329     0.4688260838     0.0164001130
    9      H       4.6559020013     0.2596079230    -0.0040926485
   10      H       2.8513393933     1.1959323116     1.2583682546
   11      H       2.8282098542     1.2690412200    -1.1732073411
   12      N       2.2219155942    -0.9768524535    -0.0183786180
   13      H       2.2522182190    -1.5850253760     0.7857968556
   14      H       2.2351645228    -1.5343871217    -0.8585898372
 ----------------------------------------------------------------

    9    -692.7014947360      9.96E-09 Convergence criterion met
 Total energy in the final basis set = -692.70149474
        MP2         total energy =                  -693.42185985 au

                    Orbital Energies (a.u.)
 --------------------------------------------------------------

 Alpha MOs
 -- Occupied --
-68.778 -68.774 -15.538 -15.532  -6.124  -6.120  -4.231  -4.231
 -4.231  -4.227  -4.227  -4.226  -1.135  -1.130  -0.720  -0.716
 -0.655  -0.650  -0.552  -0.546  -0.492  -0.488  -0.476  -0.473
 -0.403  -0.398

          Ground-State Mulliken Net Atomic Charges

     Atom                 Charge (a.u.)
  ----------------------------------------
      1 Si                    0.968346
      2 H                    -0.292969
      3 H                    -0.238915
      4 H                    -0.225627
      5 N                    -0.462528
      6 H                     0.122093
      7 H                     0.125554
      8 Si                    1.077430
      9 H                    -0.352839
     10 H                    -0.275769
     11 H                    -0.276054
     12 N                    -0.417481
     13 H                     0.124403
     14 H                     0.124355
  ----------------------------------------
  Sum of atomic charges =     0.000000

                    Cartesian Multipole Moments
 -----------------------------------------------------------------
    Charge (ESU x 10^10)
                 0.0000
    Dipole Moment (Debye)
         X      -0.3223      Y      -1.3227      Z      -0.8084
       Tot       1.5834
    Quadrupole Moments (Debye-Ang)
        XX     -38.9147     XY      -1.9472     YY     -41.7043
        XZ       3.5614     YZ      -1.7499     ZZ     -44.3891

 Total job time:  1055.95s(wall), 2840.44s(cpu)
        *  Thank you very much for using Q-Chem.  Have a nice day.  *
