 Q-Chem 5.1, Q-Chem, Inc., Pleasanton, CA (2018)
 Q-Chem 5.1.2 for Intel X86 EM64T Linux

User input:
--------------------------------------------------------------
$molecule
0 1
Si     2.701607000     0.125690888    -0.270400178
H     3.881940247    -0.764955877    -0.394351651
H     3.074781685     1.254572160     0.606696963
H     2.345683281     0.606987292    -1.620593772
N     1.274958878    -0.611037074     0.407064268
H     1.327705539    -0.932294968     1.362965471
H     0.821958737    -1.325136373    -0.145472211
Si    -2.472324982    -0.044775630    -0.259392139
H    -2.516349562     0.653783172    -1.571680725
H    -3.862079446    -0.103451072     0.244733594
H    -1.969702840    -1.414940059    -0.515760875
N    -1.461198156     0.649203741     0.955843230
H    -1.686552143     1.564944065     1.309238275
H    -0.462106537     0.550685373     0.819202430
$end

$rem
BASIS = aug-cc-pVTZ
JOB_TYPE  =  SP
METHOD  =  MP2
SCF_MAX_CYCLES  =  200
$end

--------------------------------------------------------------

    6    -692.7016632261      6.10e-06  Convergence criterion met
 Total energy in the final basis set =     -692.7016632261
        MP2         total energy =                  -693.42719939 au
 Total job time:  456.62s(wall), 2708.58s(cpu)
        *  Thank you very much for using Q-Chem.  Have a nice day.  *
 Q-Chem 5.1, Q-Chem, Inc., Pleasanton, CA (2018)
 Q-Chem 5.1.2 for Intel X86 EM64T Linux

User input:
--------------------------------------------------------------

$molecule
0 1
Si     2.701607000     0.125690888    -0.270400178
H     3.881940247    -0.764955877    -0.394351651
H     3.074781685     1.254572160     0.606696963
H     2.345683281     0.606987292    -1.620593772
N     1.274958878    -0.611037074     0.407064268
H     1.327705539    -0.932294968     1.362965471
H     0.821958737    -1.325136373    -0.145472211
@Si   -2.472324982    -0.044775630    -0.259392139
@H    -2.516349562     0.653783172    -1.571680725
@H    -3.862079446    -0.103451072     0.244733594
@H    -1.969702840    -1.414940059    -0.515760875
@N    -1.461198156     0.649203741     0.955843230
@H    -1.686552143     1.564944065     1.309238275
@H    -0.462106537     0.550685373     0.819202430
$end

$rem
BASIS = aug-cc-pVTZ
JOB_TYPE  =  SP
METHOD  =  MP2
SCF_MAX_CYCLES  =  200
$end

--------------------------------------------------------------

    6    -346.3504692031      4.49e-06  Convergence criterion met
 Total energy in the final basis set =     -346.3504692031
        MP2         total energy =                  -346.71103895 au
 Total job time:  255.61s(wall), 1525.75s(cpu)
        *  Thank you very much for using Q-Chem.  Have a nice day.  *
 Q-Chem 5.1, Q-Chem, Inc., Pleasanton, CA (2018)
 Q-Chem 5.1.2 for Intel X86 EM64T Linux

User input:
--------------------------------------------------------------

$molecule
0 1
@Si    2.701607000     0.125690888    -0.270400178
@H     3.881940247    -0.764955877    -0.394351651
@H     3.074781685     1.254572160     0.606696963
@H     2.345683281     0.606987292    -1.620593772
@N     1.274958878    -0.611037074     0.407064268
@H     1.327705539    -0.932294968     1.362965471
@H     0.821958737    -1.325136373    -0.145472211
Si    -2.472324982    -0.044775630    -0.259392139
H    -2.516349562     0.653783172    -1.571680725
H    -3.862079446    -0.103451072     0.244733594
H    -1.969702840    -1.414940059    -0.515760875
N    -1.461198156     0.649203741     0.955843230
H    -1.686552143     1.564944065     1.309238275
H    -0.462106537     0.550685373     0.819202430
$end

$rem
BASIS = aug-cc-pVTZ
JOB_TYPE  =  SP
METHOD  =  MP2
SCF_MAX_CYCLES  =  200
$end

--------------------------------------------------------------

             Standard Nuclear Orientation (Angstroms)
    I     Atom           X                Y                Z
 ----------------------------------------------------------------
    1      GH      2.7016070000     0.1256908880    -0.2704001780
    2      GH      3.8819402470    -0.7649558770    -0.3943516510
    3      GH      3.0747816850     1.2545721600     0.6066969630
    4      GH      2.3456832810     0.6069872920    -1.6205937720
    5      GH      1.2749588780    -0.6110370740     0.4070642680
    6      GH      1.3277055390    -0.9322949680     1.3629654710
    7      GH      0.8219587370    -1.3251363730    -0.1454722110
    8      Si     -2.4723249820    -0.0447756300    -0.2593921390
    9      H      -2.5163495620     0.6537831720    -1.5716807250
   10      H      -3.8620794460    -0.1034510720     0.2447335940
   11      H      -1.9697028400    -1.4149400590    -0.5157608750
   12      N      -1.4611981560     0.6492037410     0.9558432300
   13      H      -1.6865521430     1.5649440650     1.3092382750
   14      H      -0.4621065370     0.5506853730     0.8192024300
 ----------------------------------------------------------------

    6    -346.3505346118      4.38e-06  Convergence criterion met
 Total energy in the final basis set =     -346.3505346118
        MP2         total energy =                  -346.71067389 au

                    Orbital Energies (a.u.)
 --------------------------------------------------------------

 Alpha MOs
 -- Occupied --
-68.778 -15.540  -6.124  -4.231  -4.231  -4.230  -1.138  -0.720
 -0.660  -0.554  -0.492  -0.474  -0.405

          Ground-State Mulliken Net Atomic Charges

     Atom                 Charge (a.u.)
  ----------------------------------------
      1 GH                    0.003601
      2 GH                    0.000148
      3 GH                    0.001108
      4 GH                   -0.000969
      5 GH                    0.018885
      6 GH                   -0.001070
      7 GH                   -0.006425
      8 Si                    1.085544
      9 H                    -0.356184
     10 H                    -0.317954
     11 H                    -0.283617
     12 N                    -0.505718
     13 H                     0.120330
     14 H                     0.242319
  ----------------------------------------
  Sum of atomic charges =     0.000000

                    Cartesian Multipole Moments
 -----------------------------------------------------------------
    Charge (ESU x 10^10)
                -0.0000
    Dipole Moment (Debye)
         X       0.7972      Y       1.0390      Z       0.0048
       Tot       1.3096
    Quadrupole Moments (Debye-Ang)
        XX     -23.8454     XY      -1.6477     YY     -20.6901
        XZ       0.1593     YZ       1.9267     ZZ     -24.3094

 Total job time:  258.50s(wall), 1542.65s(cpu)
        *  Thank you very much for using Q-Chem.  Have a nice day.  *
