 Q-Chem 5.1, Q-Chem, Inc., Pleasanton, CA (2018)
 Q-Chem 5.1.2 for Intel X86 EM64T Linux

User input:
--------------------------------------------------------------
$molecule
0 1
Si     1.924810978     0.221250999     0.126279543
H     1.412655312     0.307098559     1.517792385
H     1.133853934    -0.817922695    -0.568974842
H     1.726171862     1.539629336    -0.510559482
N     3.598001176    -0.193061537    -0.046238154
H     3.898337608    -1.114121400     0.229631138
H     4.290301474     0.485203856     0.228290528
Si    -3.650982178    -0.453822847    -0.255149757
H    -3.418174156    -0.896527515    -1.653429752
H    -3.226313628    -1.550233605     0.640135337
H    -2.823047043     0.750614174    -0.027422443
N    -5.284969321    -0.045909250     0.151789018
H    -5.967651879    -0.785621249     0.192782747
H    -5.695997692     0.769237596    -0.274285502
$end

$rem
BASIS = aug-cc-pVTZ
JOB_TYPE  =  SP
METHOD  =  MP2
SCF_MAX_CYCLES  =  200
$end

--------------------------------------------------------------

    6    -692.7015498862      6.12e-06  Convergence criterion met
 Total energy in the final basis set =     -692.7015498862
        MP2         total energy =                  -693.42129287 au
 Total job time:  284.53s(wall), 1684.02s(cpu)
        *  Thank you very much for using Q-Chem.  Have a nice day.  *
 Q-Chem 5.1, Q-Chem, Inc., Pleasanton, CA (2018)
 Q-Chem 5.1.2 for Intel X86 EM64T Linux

User input:
--------------------------------------------------------------

$molecule
0 1
Si     1.924810978     0.221250999     0.126279543
H     1.412655312     0.307098559     1.517792385
H     1.133853934    -0.817922695    -0.568974842
H     1.726171862     1.539629336    -0.510559482
N     3.598001176    -0.193061537    -0.046238154
H     3.898337608    -1.114121400     0.229631138
H     4.290301474     0.485203856     0.228290528
@Si   -3.650982178    -0.453822847    -0.255149757
@H    -3.418174156    -0.896527515    -1.653429752
@H    -3.226313628    -1.550233605     0.640135337
@H    -2.823047043     0.750614174    -0.027422443
@N    -5.284969321    -0.045909250     0.151789018
@H    -5.967651879    -0.785621249     0.192782747
@H    -5.695997692     0.769237596    -0.274285502
$end

$rem
BASIS = aug-cc-pVTZ
JOB_TYPE  =  SP
METHOD  =  MP2
SCF_MAX_CYCLES  =  200
$end

--------------------------------------------------------------

    6    -346.3507875551      4.33e-06  Convergence criterion met
 Total energy in the final basis set =     -346.3507875551
        MP2         total energy =                  -346.71049476 au
 Total job time:  158.60s(wall), 943.72s(cpu)
        *  Thank you very much for using Q-Chem.  Have a nice day.  *
 Q-Chem 5.1, Q-Chem, Inc., Pleasanton, CA (2018)
 Q-Chem 5.1.2 for Intel X86 EM64T Linux

User input:
--------------------------------------------------------------

$molecule
0 1
@Si     1.924810978     0.221250999     0.126279543
@H      1.412655312     0.307098559     1.517792385
@H      1.133853934    -0.817922695    -0.568974842
@H      1.726171862     1.539629336    -0.510559482
@N      3.598001176    -0.193061537    -0.046238154
@H      3.898337608    -1.114121400     0.229631138
@H      4.290301474     0.485203856     0.228290528
Si    -3.650982178    -0.453822847    -0.255149757
H     -3.418174156    -0.896527515    -1.653429752
H     -3.226313628    -1.550233605     0.640135337
H     -2.823047043     0.750614174    -0.027422443
N     -5.284969321    -0.045909250     0.151789018
H     -5.967651879    -0.785621249     0.192782747
H     -5.695997692     0.769237596    -0.274285502
$end

$rem
BASIS = aug-cc-pVTZ
JOB_TYPE  =  SP
METHOD  =  MP2
SCF_MAX_CYCLES  =  200
$end

--------------------------------------------------------------

             Standard Nuclear Orientation (Angstroms)
    I     Atom           X                Y                Z
 ----------------------------------------------------------------
    1      GH      1.9248109780     0.2212509990     0.1262795430
    2      GH      1.4126553120     0.3070985590     1.5177923850
    3      GH      1.1338539340    -0.8179226950    -0.5689748420
    4      GH      1.7261718620     1.5396293360    -0.5105594820
    5      GH      3.5980011760    -0.1930615370    -0.0462381540
    6      GH      3.8983376080    -1.1141214000     0.2296311380
    7      GH      4.2903014740     0.4852038560     0.2282905280
    8      Si     -3.6509821780    -0.4538228470    -0.2551497570
    9      H      -3.4181741560    -0.8965275150    -1.6534297520
   10      H      -3.2263136280    -1.5502336050     0.6401353370
   11      H      -2.8230470430     0.7506141740    -0.0274224430
   12      N      -5.2849693210    -0.0459092500     0.1517890180
   13      H      -5.9676518790    -0.7856212490     0.1927827470
   14      H      -5.6959976920     0.7692375960    -0.2742855020
 ----------------------------------------------------------------

    6    -346.3507756699      4.34e-06  Convergence criterion met
 Total energy in the final basis set =     -346.3507756699
        MP2         total energy =                  -346.71049536 au

                    Orbital Energies (a.u.)
 --------------------------------------------------------------

 Alpha MOs
 -- Occupied --
-68.778 -15.538  -6.125  -4.231  -4.231  -4.231  -1.137  -0.721
 -0.657  -0.554  -0.492  -0.475  -0.404

          Ground-State Mulliken Net Atomic Charges

     Atom                 Charge (a.u.)
  ----------------------------------------
      1 GH                    0.000890
      2 GH                    0.000498
      3 GH                   -0.000192
      4 GH                   -0.000026
      5 GH                    0.000063
      6 GH                   -0.000008
      7 GH                    0.000018
      8 Si                    1.107790
      9 H                    -0.332261
     10 H                    -0.283013
     11 H                    -0.281861
     12 N                    -0.467836
     13 H                     0.126770
     14 H                     0.129167
  ----------------------------------------
  Sum of atomic charges =    -0.000001

                    Cartesian Multipole Moments
 -----------------------------------------------------------------
    Charge (ESU x 10^10)
                -0.0000
    Dipole Moment (Debye)
         X      -1.0487      Y      -0.0346      Z      -0.6848
       Tot       1.2530
    Quadrupole Moments (Debye-Ang)
        XX     -11.2812     XY       0.6459     YY     -21.1954
        XZ       4.0393     YZ      -1.0362     ZZ     -24.2349

 Total job time:  157.27s(wall), 936.90s(cpu)
        *  Thank you very much for using Q-Chem.  Have a nice day.  *
