 Q-Chem 5.1, Q-Chem, Inc., Pleasanton, CA (2018)
 Q-Chem 5.1.2 for Intel X86 EM64T Linux

User input:
--------------------------------------------------------------
$molecule
0 1
Si     2.701607000     0.125690888    -0.270400178
H     3.881940247    -0.764955877    -0.394351651
H     3.074781685     1.254572160     0.606696963
H     2.345683281     0.606987292    -1.620593772
N     1.274958878    -0.611037074     0.407064268
H     1.327705539    -0.932294968     1.362965471
H     0.821958737    -1.325136373    -0.145472211
Si    -3.817416828     0.055209942    -0.203983498
H    -3.861441408     0.753768745    -1.516272084
H    -5.207171293    -0.003465500     0.300142235
H    -3.314794686    -1.314954487    -0.460352234
N    -2.806290002     0.749189313     1.011251871
H    -3.031643989     1.664929637     1.364646916
H    -1.807198383     0.650670946     0.874611071
$end

$rem
BASIS = aug-cc-pVTZ
JOB_TYPE  =  SP
METHOD  =  MP2
SCF_MAX_CYCLES  =  200
$end

--------------------------------------------------------------

    6    -692.7025368488      6.22e-06  Convergence criterion met
 Total energy in the final basis set =     -692.7025368488
        MP2         total energy =                  -693.42315594 au
 Total job time:  339.23s(wall), 2008.16s(cpu)
        *  Thank you very much for using Q-Chem.  Have a nice day.  *
 Q-Chem 5.1, Q-Chem, Inc., Pleasanton, CA (2018)
 Q-Chem 5.1.2 for Intel X86 EM64T Linux

User input:
--------------------------------------------------------------

$molecule
0 1
Si     2.701607000     0.125690888    -0.270400178
H     3.881940247    -0.764955877    -0.394351651
H     3.074781685     1.254572160     0.606696963
H     2.345683281     0.606987292    -1.620593772
N     1.274958878    -0.611037074     0.407064268
H     1.327705539    -0.932294968     1.362965471
H     0.821958737    -1.325136373    -0.145472211
@Si   -3.817416828     0.055209942    -0.203983498
@H    -3.861441408     0.753768745    -1.516272084
@H    -5.207171293    -0.003465500     0.300142235
@H    -3.314794686    -1.314954487    -0.460352234
@N    -2.806290002     0.749189313     1.011251871
@H    -3.031643989     1.664929637     1.364646916
@H    -1.807198383     0.650670946     0.874611071
$end

$rem
BASIS = aug-cc-pVTZ
JOB_TYPE  =  SP
METHOD  =  MP2
SCF_MAX_CYCLES  =  200
$end

--------------------------------------------------------------

    6    -346.3503791132      4.48e-06  Convergence criterion met
 Total energy in the final basis set =     -346.3503791132
        MP2         total energy =                  -346.71049336 au
 Total job time:  189.32s(wall), 1128.21s(cpu)
        *  Thank you very much for using Q-Chem.  Have a nice day.  *
 Q-Chem 5.1, Q-Chem, Inc., Pleasanton, CA (2018)
 Q-Chem 5.1.2 for Intel X86 EM64T Linux

User input:
--------------------------------------------------------------

$molecule
0 1
@Si     2.701607000     0.125690888    -0.270400178
@H      3.881940247    -0.764955877    -0.394351651
@H      3.074781685     1.254572160     0.606696963
@H      2.345683281     0.606987292    -1.620593772
@N      1.274958878    -0.611037074     0.407064268
@H      1.327705539    -0.932294968     1.362965471
@H      0.821958737    -1.325136373    -0.145472211
Si     -3.817416828     0.055209942    -0.203983498
H     -3.861441408     0.753768745    -1.516272084
H     -5.207171293    -0.003465500     0.300142235
H     -3.314794686    -1.314954487    -0.460352234
N     -2.806290002     0.749189313     1.011251871
H     -3.031643989     1.664929637     1.364646916
H     -1.807198383     0.650670946     0.874611071
$end

$rem
BASIS = aug-cc-pVTZ
JOB_TYPE  =  SP
METHOD  =  MP2
SCF_MAX_CYCLES  =  200
$end

--------------------------------------------------------------

             Standard Nuclear Orientation (Angstroms)
    I     Atom           X                Y                Z
 ----------------------------------------------------------------
    1      GH      2.7016070000     0.1256908880    -0.2704001780
    2      GH      3.8819402470    -0.7649558770    -0.3943516510
    3      GH      3.0747816850     1.2545721600     0.6066969630
    4      GH      2.3456832810     0.6069872920    -1.6205937720
    5      GH      1.2749588780    -0.6110370740     0.4070642680
    6      GH      1.3277055390    -0.9322949680     1.3629654710
    7      GH      0.8219587370    -1.3251363730    -0.1454722110
    8      Si     -3.8174168280     0.0552099420    -0.2039834980
    9      H      -3.8614414080     0.7537687450    -1.5162720840
   10      H      -5.2071712930    -0.0034655000     0.3001422350
   11      H      -3.3147946860    -1.3149544870    -0.4603522340
   12      N      -2.8062900020     0.7491893130     1.0112518710
   13      H      -3.0316439890     1.6649296370     1.3646469160
   14      H      -1.8071983830     0.6506709460     0.8746110710
 ----------------------------------------------------------------

    6    -346.3504686836      4.38e-06  Convergence criterion met
 Total energy in the final basis set =     -346.3504686836
        MP2         total energy =                  -346.71032959 au

                    Orbital Energies (a.u.)
 --------------------------------------------------------------

 Alpha MOs
 -- Occupied --
-68.778 -15.540  -6.124  -4.231  -4.231  -4.230  -1.138  -0.720
 -0.660  -0.554  -0.492  -0.474  -0.405

          Ground-State Mulliken Net Atomic Charges

     Atom                 Charge (a.u.)
  ----------------------------------------
      1 GH                   -0.000320
      2 GH                    0.000078
      3 GH                   -0.000069
      4 GH                    0.000030
      5 GH                    0.003732
      6 GH                   -0.000594
      7 GH                   -0.000338
      8 Si                    1.113583
      9 H                    -0.349880
     10 H                    -0.305498
     11 H                    -0.295153
     12 N                    -0.483562
     13 H                     0.108377
     14 H                     0.209612
  ----------------------------------------
  Sum of atomic charges =    -0.000001

                    Cartesian Multipole Moments
 -----------------------------------------------------------------
    Charge (ESU x 10^10)
                -0.0000
    Dipole Moment (Debye)
         X       0.7971      Y       1.0390      Z       0.0043
       Tot       1.3096
    Quadrupole Moments (Debye-Ang)
        XX     -25.9913     XY      -2.9660     YY     -20.4842
        XZ       0.1978     YZ       1.9849     ZZ     -24.3088

 Total job time:  193.47s(wall), 1153.56s(cpu)
        *  Thank you very much for using Q-Chem.  Have a nice day.  *
