 Q-Chem 5.1, Q-Chem, Inc., Pleasanton, CA (2018)
 Q-Chem 5.1.2 for Intel X86 EM64T Linux

User input:
--------------------------------------------------------------
$molecule
0 1
--
0 1
O     2.640573347     0.387661768     0.484745646
H     2.428921256     0.658206165     1.379755289
H     1.777509297     0.191546571     0.091553062
--
0 1
Si    -1.357952553     0.015729139     0.091827750
H    -2.655810102    -0.247964206    -0.574393176
H    -1.336649227     1.427474306     0.524374607
H    -1.244771178    -0.890038167     1.252678532
N     0.057221947    -0.239783031    -0.898128428
H     0.172615433     0.367672861    -1.696977438
H     0.246321187    -1.189203109    -1.186508985
$end

$rem
BASIS = aug-cc-pVTZ
JOB_TYPE  =  BSSE
METHOD  =  MP2
SCF_CONVERGENCE  =  7
SCF_MAX_CYCLES  =  200
$end

--------------------------------------------------------------

             Standard Nuclear Orientation (Angstroms)
    I     Atom           X                Y                Z
 ----------------------------------------------------------------
    1      O       2.6525015180     0.2095255773    -0.0023733982
    2      H       2.5805814109     1.1652579964     0.0185115377
    3      H       1.7323992298    -0.0925387457     0.0081174098
    4      Si     -1.3809970523     0.3182171941    -0.0006007463
    5      H      -2.7707068473    -0.1966525357    -0.0384764218
    6      H      -1.1653914552     1.1605018884    -1.1941859975
    7      H      -1.2173793029     1.1091440596     1.2357094493
    8      N      -0.1309304481    -0.9005321155     0.0008738425
    9      H      -0.0542775050    -1.4784280918    -0.8241344151
   10      H      -0.0747658062    -1.4948050974     0.8157391742
 ----------------------------------------------------------------

    9    -422.4151632407      2.61E-08 Convergence criterion met
 Total energy in the final basis set = -422.41516324
        MP2         total energy =                  -423.04825185 au

                    Orbital Energies (a.u.)
 --------------------------------------------------------------

 Alpha MOs
 -- Occupied --
-68.794 -20.535 -15.558  -6.140  -4.247  -4.247  -4.246  -1.322
 -1.157  -0.737  -0.688  -0.673  -0.572  -0.559  -0.506  -0.491
 -0.480  -0.426

          Ground-State Mulliken Net Atomic Charges

     Atom                 Charge (a.u.)
  ----------------------------------------
      1 O                    -0.518068
      2 H                     0.180962
      3 H                     0.331704
      4 Si                    1.049003
      5 H                    -0.380676
      6 H                    -0.278096
      7 H                    -0.279081
      8 N                    -0.243976
      9 H                     0.068823
     10 H                     0.069405
  ----------------------------------------
  Sum of atomic charges =    -0.000000

                    Cartesian Multipole Moments
 -----------------------------------------------------------------
    Charge (ESU x 10^10)
                -0.0000
    Dipole Moment (Debye)
         X      -2.6702      Y      -0.3353      Z       0.0282
       Tot       2.6913
    Quadrupole Moments (Debye-Ang)
        XX     -39.4726     XY       2.8832     YY     -23.8471
        XZ       0.0783     YZ       0.0517     ZZ     -28.1926

 Total job time:  301.53s(wall), 642.81s(cpu)
        *  Thank you very much for using Q-Chem.  Have a nice day.  *
