 Q-Chem 5.1, Q-Chem, Inc., Pleasanton, CA (2018)
 Q-Chem 5.1.2 for Intel X86 EM64T Linux

User input:
--------------------------------------------------------------
$molecule
0 1
Si    -1.603238946    -0.037666475    -0.093158434
H    -1.351489209     0.587977452    -1.416517664
H    -1.362259228    -1.490505278    -0.207462190
H    -0.720166038     0.598793029     0.904338035
N    -3.226075392     0.145065116     0.503430997
H    -3.972557755    -0.323149309     0.014787982
H    -3.532381265     1.064684992     0.778721563
Si     5.489500476     0.185172885     0.002912194
H     6.945298884     0.073706831    -0.270304748
H     5.227090452    -0.448672988     1.311414634
H     5.146814858     1.622022734     0.036967767
N     4.447637024    -0.572444213    -1.163334558
H     4.464801694    -1.578814198    -1.229784348
H     4.409170356    -0.177805771    -2.090564922
$end

$rem
BASIS = aug-cc-pVTZ
JOB_TYPE  =  SP
METHOD  =  MP2
SCF_MAX_CYCLES  =  200
$end

--------------------------------------------------------------

    6    -692.7011677063      6.19e-06  Convergence criterion met
 Total energy in the final basis set =     -692.7011677063
        MP2         total energy =                  -693.42090686 au
 Total job time:  248.42s(wall), 1468.50s(cpu)
        *  Thank you very much for using Q-Chem.  Have a nice day.  *
 Q-Chem 5.1, Q-Chem, Inc., Pleasanton, CA (2018)
 Q-Chem 5.1.2 for Intel X86 EM64T Linux

User input:
--------------------------------------------------------------

$molecule
0 1
Si    -1.603238946    -0.037666475    -0.093158434
H    -1.351489209     0.587977452    -1.416517664
H    -1.362259228    -1.490505278    -0.207462190
H    -0.720166038     0.598793029     0.904338035
N    -3.226075392     0.145065116     0.503430997
H    -3.972557755    -0.323149309     0.014787982
H    -3.532381265     1.064684992     0.778721563
@Si     5.489500476     0.185172885     0.002912194
@H     6.945298884     0.073706831    -0.270304748
@H     5.227090452    -0.448672988     1.311414634
@H     5.146814858     1.622022734     0.036967767
@N     4.447637024    -0.572444213    -1.163334558
@H     4.464801694    -1.578814198    -1.229784348
@H     4.409170356    -0.177805771    -2.090564922
$end

$rem
BASIS = aug-cc-pVTZ
JOB_TYPE  =  SP
METHOD  =  MP2
SCF_MAX_CYCLES  =  200
$end

--------------------------------------------------------------

    6    -346.3505088560      4.31e-06  Convergence criterion met
 Total energy in the final basis set =     -346.3505088560
        MP2         total energy =                  -346.71031595 au
 Total job time:  138.70s(wall), 826.20s(cpu)
        *  Thank you very much for using Q-Chem.  Have a nice day.  *
 Q-Chem 5.1, Q-Chem, Inc., Pleasanton, CA (2018)
 Q-Chem 5.1.2 for Intel X86 EM64T Linux

User input:
--------------------------------------------------------------

$molecule
0 1
@Si    -1.603238946    -0.037666475    -0.093158434
@H     -1.351489209     0.587977452    -1.416517664
@H     -1.362259228    -1.490505278    -0.207462190
@H     -0.720166038     0.598793029     0.904338035
@N     -3.226075392     0.145065116     0.503430997
@H     -3.972557755    -0.323149309     0.014787982
@H     -3.532381265     1.064684992     0.778721563
Si     5.489500476     0.185172885     0.002912194
H    6.945298884     0.073706831    -0.270304748
H    5.227090452    -0.448672988     1.311414634
H    5.146814858     1.622022734     0.036967767
N    4.447637024    -0.572444213    -1.163334558
H    4.464801694    -1.578814198    -1.229784348
H    4.409170356    -0.177805771    -2.090564922
$end

$rem
BASIS = aug-cc-pVTZ
JOB_TYPE  =  SP
METHOD  =  MP2
SCF_MAX_CYCLES  =  200
$end

--------------------------------------------------------------

             Standard Nuclear Orientation (Angstroms)
    I     Atom           X                Y                Z
 ----------------------------------------------------------------
    1      GH     -1.6032389460    -0.0376664750    -0.0931584340
    2      GH     -1.3514892090     0.5879774520    -1.4165176640
    3      GH     -1.3622592280    -1.4905052780    -0.2074621900
    4      GH     -0.7201660380     0.5987930290     0.9043380350
    5      GH     -3.2260753920     0.1450651160     0.5034309970
    6      GH     -3.9725577550    -0.3231493090     0.0147879820
    7      GH     -3.5323812650     1.0646849920     0.7787215630
    8      Si      5.4895004760     0.1851728850     0.0029121940
    9      H       6.9452988840     0.0737068310    -0.2703047480
   10      H       5.2270904520    -0.4486729880     1.3114146340
   11      H       5.1468148580     1.6220227340     0.0369677670
   12      N       4.4476370240    -0.5724442130    -1.1633345580
   13      H       4.4648016940    -1.5788141980    -1.2297843480
   14      H       4.4091703560    -0.1778057710    -2.0905649220
 ----------------------------------------------------------------

    6    -346.3506436816      4.38e-06  Convergence criterion met
 Total energy in the final basis set =     -346.3506436816
        MP2         total energy =                  -346.71046426 au

                    Orbital Energies (a.u.)
 --------------------------------------------------------------

 Alpha MOs
 -- Occupied --
-68.779 -15.538  -6.125  -4.232  -4.232  -4.231  -1.136  -0.721
 -0.655  -0.553  -0.492  -0.476  -0.404

          Ground-State Mulliken Net Atomic Charges

     Atom                 Charge (a.u.)
  ----------------------------------------
      1 GH                   -0.000596
      2 GH                    0.000225
      3 GH                    0.000139
      4 GH                   -0.000184
      5 GH                    0.000027
      6 GH                    0.000010
      7 GH                    0.000016
      8 Si                    1.076710
      9 H                    -0.329638
     10 H                    -0.281209
     11 H                    -0.280652
     12 N                    -0.439940
     13 H                     0.127516
     14 H                     0.127569
  ----------------------------------------
  Sum of atomic charges =    -0.000006

                    Cartesian Multipole Moments
 -----------------------------------------------------------------
    Charge (ESU x 10^10)
                -0.0000
    Dipole Moment (Debye)
         X       0.3158      Y      -0.6107      Z      -1.0119
       Tot       1.2233
    Quadrupole Moments (Debye-Ang)
        XX     -21.7816     XY      -2.9504     YY     -20.4598
        XZ      -4.7092     YZ       0.7277     ZZ     -19.3789

 Total job time:  139.44s(wall), 830.32s(cpu)
        *  Thank you very much for using Q-Chem.  Have a nice day.  *
