 Q-Chem 5.1, Q-Chem, Inc., Pleasanton, CA (2018)
 Q-Chem 5.1.2 for Intel X86 EM64T Linux

User input:
--------------------------------------------------------------
$molecule
0 1
--
0 1
Si    -1.603238946    -0.037666475    -0.093158434
H    -1.351489209     0.587977452    -1.416517664
H    -1.362259228    -1.490505278    -0.207462190
H    -0.720166038     0.598793029     0.904338035
N    -3.226075392     0.145065116     0.503430997
H    -3.972557755    -0.323149309     0.014787982
H    -3.532381265     1.064684992     0.778721563
--
0 1
Si     1.845231243     0.235435678     0.246298168
H     3.301029651     0.123969624    -0.026918774
H     1.582821219    -0.398410196     1.554800608
H     1.502545625     1.672285527     0.280353741
N     0.803367791    -0.522181421    -0.919948584
H     0.820532461    -1.528551405    -0.986398374
H     0.764901123    -0.127542978    -1.847178948
$end

$rem
BASIS = aug-cc-pVTZ
JOB_TYPE  =  BSSE
METHOD  =  MP2
SCF_CONVERGENCE  =  8
SCF_MAX_CYCLES  =  200
$end

--------------------------------------------------------------

             Standard Nuclear Orientation (Angstroms)
    I     Atom           X                Y                Z
 ----------------------------------------------------------------
    1      Si     -1.2805289092    -0.1287010662    -0.0303527534
    2      H      -0.9638580080    -0.8775835111    -1.2733260150
    3      H      -1.0320432673    -1.0129401079     1.1264762588
    4      H      -0.4493304051     1.0908997902     0.0094023025
    5      N      -2.9314151497     0.4003735804     0.1021710304
    6      H      -3.6518677014    -0.2964689981     0.2050846046
    7      H      -3.2524221522     1.1227992184    -0.5226206163
    8      Si      2.1462693775     0.4513039397     0.0187380820
    9      H       3.6140624193     0.2240311345    -0.0000193684
   10      H       1.8197058517     1.1828302724     1.2601178531
   11      H       1.8002386886     1.2554924296    -1.1715032122
   12      N       1.1650873171    -0.9824389079    -0.0167276649
   13      H       1.1870024966    -1.5906982770     0.7876547130
   14      H       1.1724403503    -1.5403448874    -0.8567646784
 ----------------------------------------------------------------

   10    -692.6856888230      5.50E-09 Convergence criterion met
 Total energy in the final basis set = -692.68568882
        MP2         total energy =                  -693.41888799 au

                    Orbital Energies (a.u.)
 --------------------------------------------------------------

 Alpha MOs
 -- Occupied --
-68.783 -68.764 -15.545 -15.519  -6.129  -6.108  -4.236  -4.236
 -4.235  -4.215  -4.214  -4.214  -1.152  -1.119  -0.730  -0.709
 -0.669  -0.639  -0.566  -0.551  -0.494  -0.480  -0.472  -0.458
 -0.407  -0.384

          Ground-State Mulliken Net Atomic Charges

     Atom                 Charge (a.u.)
  ----------------------------------------
      1 Si                    1.393348
      2 H                    -0.320838
      3 H                    -0.266903
      4 H                    -0.217302
      5 N                    -0.798388
      6 H                     0.103575
      7 H                     0.110328
      8 Si                    1.241750
      9 H                    -0.651529
     10 H                    -0.243317
     11 H                    -0.241605
     12 N                    -0.271396
     13 H                     0.076824
     14 H                     0.085452
  ----------------------------------------
  Sum of atomic charges =    -0.000000

                    Cartesian Multipole Moments
 -----------------------------------------------------------------
    Charge (ESU x 10^10)
                -0.0000
    Dipole Moment (Debye)
         X       0.4366      Y      -1.4694      Z      -0.7980
       Tot       1.7282
    Quadrupole Moments (Debye-Ang)
        XX     -42.5634     XY      -0.9261     YY     -41.5603
        XZ       2.7928     YZ      -1.7327     ZZ     -44.6973

 Total job time:  1387.04s(wall), 3958.06s(cpu)
        *  Thank you very much for using Q-Chem.  Have a nice day.  *
