 Q-Chem 5.1, Q-Chem, Inc., Pleasanton, CA (2018)
 Q-Chem 5.1.2 for Intel X86 EM64T Linux

User input:
--------------------------------------------------------------
$molecule
0 1
--
0 1
O     2.727262800     0.140250979     0.206246615
H     2.747771752     1.047748175    -0.107062323
H     2.825602485    -0.377966203    -0.596211209
--
0 1
Si    -0.259071470    -0.012082325     0.183506819
H     0.162020182    -0.342745296     1.564228560
H     0.202187312     1.355708397    -0.137113146
H     0.322024091    -1.006152433    -0.743286327
N    -1.974386583    -0.028274141    -0.099611960
H    -2.537780880     0.667074646     0.363879112
H    -2.450042829    -0.916120043    -0.064426351
$end

$rem
BASIS = aug-cc-pVTZ
JOB_TYPE  =  BSSE
METHOD  =  MP2
SCF_CONVERGENCE  =  7
SCF_MAX_CYCLES  =  200
$end

--------------------------------------------------------------

             Standard Nuclear Orientation (Angstroms)
    I     Atom           X                Y                Z
 ----------------------------------------------------------------
    1      O       2.5740073511    -0.0061284280     0.0613709170
    2      H       2.6352524600     0.7733699200    -0.4960926519
    3      H       2.6323373785    -0.7344999355    -0.5617108237
    4      Si     -0.4161667317     0.0012181446     0.0882016479
    5      H       0.0108795016     0.0522460996     1.5052677608
    6      H       0.1084366467     1.1959255669    -0.6074086995
    7      H       0.0979729773    -1.2438478787    -0.5202915101
    8      N      -2.1346333887    -0.0025947791    -0.1755826682
    9      H      -2.6540915776     0.8244857534     0.0731099654
   10      H      -2.6540782301    -0.8175426721     0.1104142295
 ----------------------------------------------------------------

    8    -422.4096642609      5.97E-08 Convergence criterion met
 Total energy in the final basis set = -422.40966426
        MP2         total energy =                  -423.04193788 au

                    Orbital Energies (a.u.)
 --------------------------------------------------------------

 Alpha MOs
 -- Occupied --
-68.771 -20.572 -15.529  -6.117  -4.223  -4.223  -4.223  -1.359
 -1.128  -0.720  -0.714  -0.647  -0.593  -0.552  -0.510  -0.481
 -0.471  -0.395

          Ground-State Mulliken Net Atomic Charges

     Atom                 Charge (a.u.)
  ----------------------------------------
      1 O                    -0.496494
      2 H                     0.230126
      3 H                     0.229839
      4 Si                    1.186311
      5 H                    -0.267974
      6 H                    -0.266235
      7 H                    -0.260668
      8 N                    -0.594951
      9 H                     0.120125
     10 H                     0.119921
  ----------------------------------------
  Sum of atomic charges =    -0.000000

                    Cartesian Multipole Moments
 -----------------------------------------------------------------
    Charge (ESU x 10^10)
                -0.0000
    Dipole Moment (Debye)
         X      -0.2290      Y       0.0966      Z      -0.9024
       Tot       0.9360
    Quadrupole Moments (Debye-Ang)
        XX     -25.3106     XY       0.1643     YY     -25.3646
        XZ      -7.9357     YZ       0.0036     ZZ     -30.4501

 Total job time:  291.20s(wall), 599.15s(cpu)
        *  Thank you very much for using Q-Chem.  Have a nice day.  *
