 Q-Chem 5.1, Q-Chem, Inc., Pleasanton, CA (2018)
 Q-Chem 5.1.2 for Intel X86 EM64T Linux

User input:
--------------------------------------------------------------
$molecule
0 1
--
0 1
O     2.727262800     0.140250979     0.206246615
H     2.747771752     1.047748175    -0.107062323
H     2.825602485    -0.377966203    -0.596211209
--
0 1
Si    -0.395725817    -0.019085986     0.181857779
H     0.025365835    -0.349748957     1.562579520
H     0.065532965     1.348704736    -0.138762186
H     0.185369743    -1.013156094    -0.744935367
N    -2.111040931    -0.035277802    -0.101261000
H    -2.674435228     0.660070985     0.362230073
H    -2.586697176    -0.923123704    -0.066075391
$end

$rem
BASIS = aug-cc-pVTZ
JOB_TYPE  =  BSSE
METHOD  =  MP2
SCF_CONVERGENCE  =  7
SCF_MAX_CYCLES  =  200
$end

--------------------------------------------------------------

             Standard Nuclear Orientation (Angstroms)
    I     Atom           X                Y                Z
 ----------------------------------------------------------------
    1      O       2.6727882915    -0.0061081337     0.0630412478
    2      H       2.7344471574     0.7733659094    -0.4944106953
    3      H       2.7316484614    -0.7345072324    -0.5599583781
    4      Si     -0.4542491397     0.0012400346     0.0880191089
    5      H      -0.0283408543     0.0523544460     1.5054245396
    6      H       0.0708609914     1.1959361082    -0.6072282766
    7      H       0.0604307338    -1.2438335722    -0.5200017020
    8      N      -2.1725036835    -0.0026583906    -0.1771421315
    9      H      -2.6921960036     0.8244121414     0.0710941911
   10      H      -2.6921430773    -0.8176144807     0.1084777346
 ----------------------------------------------------------------

    8    -422.4106833795      5.44E-08 Convergence criterion met
 Total energy in the final basis set = -422.41068338
        MP2         total energy =                  -423.04223100 au

                    Orbital Energies (a.u.)
 --------------------------------------------------------------

 Alpha MOs
 -- Occupied --
-68.772 -20.571 -15.530  -6.118  -4.224  -4.224  -4.224  -1.357
 -1.129  -0.718  -0.714  -0.648  -0.591  -0.550  -0.511  -0.483
 -0.471  -0.396

          Ground-State Mulliken Net Atomic Charges

     Atom                 Charge (a.u.)
  ----------------------------------------
      1 O                    -0.490755
      2 H                     0.230199
      3 H                     0.229827
      4 Si                    1.162761
      5 H                    -0.270275
      6 H                    -0.265330
      7 H                    -0.259972
      8 N                    -0.578346
      9 H                     0.121084
     10 H                     0.120809
  ----------------------------------------
  Sum of atomic charges =    -0.000000

                    Cartesian Multipole Moments
 -----------------------------------------------------------------
    Charge (ESU x 10^10)
                -0.0000
    Dipole Moment (Debye)
         X      -0.2917      Y       0.0973      Z      -0.9181
       Tot       0.9682
    Quadrupole Moments (Debye-Ang)
        XX     -25.2283     XY       0.1716     YY     -25.3261
        XZ      -8.1661     YZ       0.0035     ZZ     -30.4448

 Total job time:  288.73s(wall), 591.40s(cpu)
        *  Thank you very much for using Q-Chem.  Have a nice day.  *
