 Q-Chem 5.1, Q-Chem, Inc., Pleasanton, CA (2018)
 Q-Chem 5.1.2 for Intel X86 EM64T Linux

User input:
--------------------------------------------------------------
$molecule
0 1
--
0 1
O     2.727262800     0.140250979     0.206246615
H     2.747771752     1.047748175    -0.107062323
H     2.825602485    -0.377966203    -0.596211209
--
0 1
Si    -3.109186739    -0.158153355     0.149113818
H    -2.688095087    -0.488816325     1.529835559
H    -2.647927957     1.209637367    -0.171506147
H    -2.528091178    -1.152223463    -0.777679327
N    -4.824501852    -0.174345170    -0.134004961
H    -5.387896149     0.521003616     0.329486112
H    -5.300158098    -1.062191073    -0.098819352
$end

$rem
BASIS = aug-cc-pVTZ
JOB_TYPE  =  BSSE
METHOD  =  MP2
SCF_CONVERGENCE  =  7
SCF_MAX_CYCLES  =  200
$end

--------------------------------------------------------------

             Standard Nuclear Orientation (Angstroms)
    I     Atom           X                Y                Z
 ----------------------------------------------------------------
    1      O       4.6347731265    -0.0057728561     0.0843515523
    2      H       4.6995757267     0.7734619296    -0.4730783000
    3      H       4.6978767477    -0.7344436080    -0.5379146037
    4      Si     -1.2095745535     0.0014284685     0.0834239745
    5      H      -0.7925989124     0.0534184198     1.5034511098
    6      H      -0.6806540262     1.1960319664    -0.6090887286
    7      H      -0.6905185669    -1.2437001245    -0.5207520213
    8      N      -2.9261281261    -0.0033863814    -0.1925198680
    9      H      -3.4477463862     0.8235643393     0.0520490161
   10      H      -3.4471789635    -0.8184439636     0.0902245423
 ----------------------------------------------------------------

    6    -422.4108698742      9.46E-08 Convergence criterion met
 Total energy in the final basis set = -422.41086987
        MP2         total energy =                  -423.03945356 au

                    Orbital Energies (a.u.)
 --------------------------------------------------------------

 Alpha MOs
 -- Occupied --
-68.777 -20.567 -15.535  -6.123  -4.230  -4.230  -4.229  -1.352
 -1.133  -0.719  -0.714  -0.652  -0.585  -0.550  -0.510  -0.491
 -0.475  -0.402

          Ground-State Mulliken Net Atomic Charges

     Atom                 Charge (a.u.)
  ----------------------------------------
      1 O                    -0.446102
      2 H                     0.222985
      3 H                     0.223080
      4 Si                    1.045597
      5 H                    -0.307291
      6 H                    -0.269733
      7 H                    -0.267835
      8 N                    -0.453759
      9 H                     0.126398
     10 H                     0.126659
  ----------------------------------------
  Sum of atomic charges =    -0.000000

                    Cartesian Multipole Moments
 -----------------------------------------------------------------
    Charge (ESU x 10^10)
                -0.0000
    Dipole Moment (Debye)
         X      -0.5689      Y       0.1026      Z      -1.0590
       Tot       1.2065
    Quadrupole Moments (Debye-Ang)
        XX     -23.1515     XY       0.3206     YY     -25.1327
        XZ     -12.7329     YZ       0.0010     ZZ     -30.4975

 Total job time:  198.51s(wall), 364.11s(cpu)
        *  Thank you very much for using Q-Chem.  Have a nice day.  *
