 Q-Chem 5.1, Q-Chem, Inc., Pleasanton, CA (2018)
 Q-Chem 5.1.2 for Intel X86 EM64T Linux

User input:
--------------------------------------------------------------
$molecule
0 1
--
0 1
Si    -1.603238946    -0.037666475    -0.093158434
H    -1.351489209     0.587977452    -1.416517664
H    -1.362259228    -1.490505278    -0.207462190
H    -0.720166038     0.598793029     0.904338035
N    -3.226075392     0.145065116     0.503430997
H    -3.972557755    -0.323149309     0.014787982
H    -3.532381265     1.064684992     0.778721563
--
0 1
Si     2.143535129     0.231321386     0.226375660
H     3.599333537     0.119855332    -0.046841282
H     1.881125105    -0.402524488     1.534878100
H     1.800849510     1.668171235     0.260431233
N     1.101671677    -0.526295713    -0.939871092
H     1.118836347    -1.532665697    -1.006320882
H     1.063205008    -0.131657270    -1.867101456
$end

$rem
BASIS = aug-cc-pVTZ
JOB_TYPE  =  BSSE
METHOD  =  MP2
SCF_CONVERGENCE  =  8
SCF_MAX_CYCLES  =  200
$end

--------------------------------------------------------------

             Standard Nuclear Orientation (Angstroms)
    I     Atom           X                Y                Z
 ----------------------------------------------------------------
    1      Si     -1.4296262873    -0.1298303776    -0.0301117367
    2      H      -1.1111046966    -0.8776783779    -1.2732349284
    3      H      -1.1781898528    -1.0134189883     1.1265766600
    4      H      -0.6020261845     1.0922199582     0.0094952507
    5      N      -3.0820310656     0.3943501946     0.1029337074
    6      H      -3.8003898958    -0.3046275537     0.2060033959
    7      H      -3.4053549713     1.1158710972    -0.5217087015
    8      Si      2.2944056218     0.4549927117     0.0182697696
    9      H       3.7628587548     0.2320625812    -0.0009327428
   10      H       1.9660423071     1.1854555449     1.2598010141
   11      H       1.9456515370     1.2582452287    -1.1718086675
   12      N       1.3174570862    -0.9816425053    -0.0170207344
   13      H       1.3414052549    -1.5898957439     0.7873083202
   14      H       1.3262149203    -1.5394602493    -0.8571028721
 ----------------------------------------------------------------

   10    -692.6962052789      6.80E-09 Convergence criterion met
 Total energy in the final basis set = -692.69620528
        MP2         total energy =                  -693.42455461 au

                    Orbital Energies (a.u.)
 --------------------------------------------------------------

 Alpha MOs
 -- Occupied --
-68.781 -68.766 -15.542 -15.523  -6.127  -6.111  -4.234  -4.233
 -4.233  -4.218  -4.218  -4.217  -1.144  -1.123  -0.725  -0.709
 -0.662  -0.643  -0.559  -0.546  -0.494  -0.478  -0.476  -0.463
 -0.408  -0.389

          Ground-State Mulliken Net Atomic Charges

     Atom                 Charge (a.u.)
  ----------------------------------------
      1 Si                    1.347732
      2 H                    -0.312446
      3 H                    -0.254265
      4 H                    -0.223469
      5 N                    -0.756069
      6 H                     0.108193
      7 H                     0.112413
      8 Si                    1.241588
      9 H                    -0.626671
     10 H                    -0.251371
     11 H                    -0.247754
     12 N                    -0.321368
     13 H                     0.087368
     14 H                     0.096120
  ----------------------------------------
  Sum of atomic charges =     0.000000

                    Cartesian Multipole Moments
 -----------------------------------------------------------------
    Charge (ESU x 10^10)
                 0.0000
    Dipole Moment (Debye)
         X       0.1506      Y      -1.4089      Z      -0.7995
       Tot       1.6269
    Quadrupole Moments (Debye-Ang)
        XX     -41.8088     XY      -1.0359     YY     -41.6780
        XZ       2.8955     YZ      -1.7471     ZZ     -44.5642

 Total job time:  1400.63s(wall), 3895.28s(cpu)
        *  Thank you very much for using Q-Chem.  Have a nice day.  *
