 Q-Chem 5.1, Q-Chem, Inc., Pleasanton, CA (2018)
 Q-Chem 5.1.2 for Intel X86 EM64T Linux

User input:
--------------------------------------------------------------
$molecule
0 1
--
0 1
O     2.640573347     0.387661768     0.484745646
H     2.428921256     0.658206165     1.379755289
H     1.777509297     0.191546571     0.091553062
--
0 1
Si    -2.374378927    -0.120281526    -0.130704545
H    -3.672236476    -0.383974870    -0.796925471
H    -2.353075601     1.291463642     0.301842312
H    -2.261197552    -1.026048831     1.030146237
N    -0.959204427    -0.375793696    -1.120660723
H    -0.843810941     0.231662196    -1.919509733
H    -0.770105187    -1.325213774    -1.409041280
$end

$rem
BASIS = aug-cc-pVTZ
JOB_TYPE  =  BSSE
METHOD  =  MP2
SCF_CONVERGENCE  =  7
SCF_MAX_CYCLES  =  200
$end

--------------------------------------------------------------

             Standard Nuclear Orientation (Angstroms)
    I     Atom           X                Y                Z
 ----------------------------------------------------------------
    1      O       3.4156909510     0.1396583853    -0.0025478716
    2      H       3.3837078479     1.0975595440     0.0183229410
    3      H       2.4837877081    -0.1237554308     0.0079706971
    4      Si     -1.6575789478     0.3597949462    -0.0005313606
    5      H      -3.0675604399    -0.0966473753    -0.0383641320
    6      H      -1.4070506398     1.1923324404    -1.1941359527
    7      H      -1.4610742323     1.1432261847     1.2357616322
    8      N      -0.4594478360    -0.9100468804     0.0009326158
    9      H      -0.4069928160    -1.4906505689    -0.8240679212
   10      H      -0.4281049154    -1.5061329603     0.8158064461
 ----------------------------------------------------------------

    8    -422.4134555431      4.49E-08 Convergence criterion met
 Total energy in the final basis set = -422.41345554
        MP2         total energy =                  -423.04320182 au

                    Orbital Energies (a.u.)
 --------------------------------------------------------------

 Alpha MOs
 -- Occupied --
-68.788 -20.556 -15.550  -6.134  -4.241  -4.241  -4.240  -1.339
 -1.146  -0.729  -0.701  -0.663  -0.574  -0.561  -0.502  -0.499
 -0.485  -0.417

          Ground-State Mulliken Net Atomic Charges

     Atom                 Charge (a.u.)
  ----------------------------------------
      1 O                    -0.497305
      2 H                     0.205438
      3 H                     0.287494
      4 Si                    1.060725
      5 H                    -0.340534
      6 H                    -0.274646
      7 H                    -0.275761
      8 N                    -0.386755
      9 H                     0.111254
     10 H                     0.110090
  ----------------------------------------
  Sum of atomic charges =    -0.000000

                    Cartesian Multipole Moments
 -----------------------------------------------------------------
    Charge (ESU x 10^10)
                -0.0000
    Dipole Moment (Debye)
         X      -2.2499      Y      -0.0753      Z       0.0304
       Tot       2.2513
    Quadrupole Moments (Debye-Ang)
        XX     -40.6395     XY       4.9482     YY     -24.1986
        XZ       0.1241     YZ       0.0513     ZZ     -28.3378

 Total job time:  263.43s(wall), 547.82s(cpu)
        *  Thank you very much for using Q-Chem.  Have a nice day.  *
