 Q-Chem 5.1, Q-Chem, Inc., Pleasanton, CA (2018)
 Q-Chem 5.1.2 for Intel X86 EM64T Linux

User input:
--------------------------------------------------------------
$molecule
0 1
Si     2.701607000     0.125690888    -0.270400178
H     3.881940247    -0.764955877    -0.394351651
H     3.074781685     1.254572160     0.606696963
H     2.345683281     0.606987292    -1.620593772
N     1.274958878    -0.611037074     0.407064268
H     1.327705539    -0.932294968     1.362965471
H     0.821958737    -1.325136373    -0.145472211
Si    -3.098870822     0.001797803    -0.233582709
H    -3.142895402     0.700356605    -1.545871295
H    -4.488625287    -0.056877640     0.270543024
H    -2.596248680    -1.368366627    -0.489951445
N    -2.087743996     0.695777173     0.981652660
H    -2.313097983     1.611517498     1.335047705
H    -1.088652377     0.597258806     0.845011860
$end

$rem
BASIS = aug-cc-pVTZ
JOB_TYPE  =  SP
METHOD  =  MP2
SCF_MAX_CYCLES  =  200
$end

--------------------------------------------------------------

    6    -692.7036932658      6.07e-06  Convergence criterion met
 Total energy in the final basis set =     -692.7036932658
        MP2         total energy =                  -693.42577283 au
 Total job time:  412.42s(wall), 2442.39s(cpu)
        *  Thank you very much for using Q-Chem.  Have a nice day.  *
 Q-Chem 5.1, Q-Chem, Inc., Pleasanton, CA (2018)
 Q-Chem 5.1.2 for Intel X86 EM64T Linux

User input:
--------------------------------------------------------------

$molecule
0 1
Si     2.701607000     0.125690888    -0.270400178
H     3.881940247    -0.764955877    -0.394351651
H     3.074781685     1.254572160     0.606696963
H     2.345683281     0.606987292    -1.620593772
N     1.274958878    -0.611037074     0.407064268
H     1.327705539    -0.932294968     1.362965471
H     0.821958737    -1.325136373    -0.145472211
@Si   -3.098870822     0.001797803    -0.233582709
@H    -3.142895402     0.700356605    -1.545871295
@H    -4.488625287    -0.056877640     0.270543024
@H    -2.596248680    -1.368366627    -0.489951445
@N    -2.087743996     0.695777173     0.981652660
@H    -2.313097983     1.611517498     1.335047705
@H    -1.088652377     0.597258806     0.845011860
$end

$rem
BASIS = aug-cc-pVTZ
JOB_TYPE  =  SP
METHOD  =  MP2
SCF_MAX_CYCLES  =  200
$end

--------------------------------------------------------------

    6    -346.3504231590      4.48e-06  Convergence criterion met
 Total energy in the final basis set =     -346.3504231590
        MP2         total energy =                  -346.71069351 au
 Total job time:  222.88s(wall), 1329.30s(cpu)
        *  Thank you very much for using Q-Chem.  Have a nice day.  *
 Q-Chem 5.1, Q-Chem, Inc., Pleasanton, CA (2018)
 Q-Chem 5.1.2 for Intel X86 EM64T Linux

User input:
--------------------------------------------------------------

$molecule
0 1
@Si     2.701607000     0.125690888    -0.270400178
@H      3.881940247    -0.764955877    -0.394351651
@H      3.074781685     1.254572160     0.606696963
@H      2.345683281     0.606987292    -1.620593772
@N      1.274958878    -0.611037074     0.407064268
@H      1.327705539    -0.932294968     1.362965471
@H      0.821958737    -1.325136373    -0.145472211
Si    -3.098870822     0.001797803    -0.233582709
H     -3.142895402     0.700356605    -1.545871295
H     -4.488625287    -0.056877640     0.270543024
H     -2.596248680    -1.368366627    -0.489951445
N     -2.087743996     0.695777173     0.981652660
H     -2.313097983     1.611517498     1.335047705
H     -1.088652377     0.597258806     0.845011860
$end

$rem
BASIS = aug-cc-pVTZ
JOB_TYPE  =  SP
METHOD  =  MP2
SCF_MAX_CYCLES  =  200
$end

--------------------------------------------------------------

             Standard Nuclear Orientation (Angstroms)
    I     Atom           X                Y                Z
 ----------------------------------------------------------------
    1      GH      2.7016070000     0.1256908880    -0.2704001780
    2      GH      3.8819402470    -0.7649558770    -0.3943516510
    3      GH      3.0747816850     1.2545721600     0.6066969630
    4      GH      2.3456832810     0.6069872920    -1.6205937720
    5      GH      1.2749588780    -0.6110370740     0.4070642680
    6      GH      1.3277055390    -0.9322949680     1.3629654710
    7      GH      0.8219587370    -1.3251363730    -0.1454722110
    8      Si     -3.0988708220     0.0017978030    -0.2335827090
    9      H      -3.1428954020     0.7003566050    -1.5458712950
   10      H      -4.4886252870    -0.0568776400     0.2705430240
   11      H      -2.5962486800    -1.3683666270    -0.4899514450
   12      N      -2.0877439960     0.6957771730     0.9816526600
   13      H      -2.3130979830     1.6115174980     1.3350477050
   14      H      -1.0886523770     0.5972588060     0.8450118600
 ----------------------------------------------------------------

    6    -346.3504931381      4.38e-06  Convergence criterion met
 Total energy in the final basis set =     -346.3504931381
        MP2         total energy =                  -346.71046424 au

                    Orbital Energies (a.u.)
 --------------------------------------------------------------

 Alpha MOs
 -- Occupied --
-68.778 -15.540  -6.124  -4.231  -4.231  -4.230  -1.138  -0.720
 -0.660  -0.554  -0.492  -0.474  -0.405

          Ground-State Mulliken Net Atomic Charges

     Atom                 Charge (a.u.)
  ----------------------------------------
      1 GH                    0.001402
      2 GH                    0.000014
      3 GH                    0.000197
      4 GH                   -0.000453
      5 GH                    0.008920
      6 GH                    0.000289
      7 GH                   -0.002692
      8 Si                    1.103394
      9 H                    -0.353351
     10 H                    -0.306758
     11 H                    -0.292891
     12 N                    -0.508511
     13 H                     0.113741
     14 H                     0.236698
  ----------------------------------------
  Sum of atomic charges =     0.000000

                    Cartesian Multipole Moments
 -----------------------------------------------------------------
    Charge (ESU x 10^10)
                -0.0000
    Dipole Moment (Debye)
         X       0.7971      Y       1.0389      Z       0.0045
       Tot       1.3095
    Quadrupole Moments (Debye-Ang)
        XX     -24.8446     XY      -2.2615     YY     -20.5945
        XZ       0.1773     YZ       1.9538     ZZ     -24.3096

 Total job time:  219.38s(wall), 1307.72s(cpu)
        *  Thank you very much for using Q-Chem.  Have a nice day.  *
