 Q-Chem 5.1, Q-Chem, Inc., Pleasanton, CA (2018)
 Q-Chem 5.1.2 for Intel X86 EM64T Linux

User input:
--------------------------------------------------------------
$molecule
0 1
--
0 1
O     2.727262800     0.140250979     0.206246615
H     2.747771752     1.047748175    -0.107062323
H     2.825602485    -0.377966203    -0.596211209
--
0 1
Si    -0.940840449    -0.047023613     0.175279755
H    -0.519748797    -0.377686583     1.556001496
H    -0.479581667     1.320767109    -0.145340210
H    -0.359744889    -1.041093721    -0.751513391
N    -2.656155563    -0.063215428    -0.107839024
H    -3.219549860     0.632133358     0.355652048
H    -3.131811808    -0.951061331    -0.072653415
$end

$rem
BASIS = aug-cc-pVTZ
JOB_TYPE  =  BSSE
METHOD  =  MP2
SCF_CONVERGENCE  =  7
SCF_MAX_CYCLES  =  200
$end

--------------------------------------------------------------

             Standard Nuclear Orientation (Angstroms)
    I     Atom           X                Y                Z
 ----------------------------------------------------------------
    1      O       3.0668656861    -0.0060281808     0.0689729465
    2      H       3.1297766343     0.7733667277    -0.4884497456
    3      H       3.1273519303    -0.7345171114    -0.5537658373
    4      Si     -0.6060933787     0.0013085328     0.0871401050
    5      H      -0.1836586362     0.0527069326     1.5055743819
    6      H      -0.0794545556     1.1959696134    -0.6070102661
    7      H      -0.0897521753    -1.2437877435    -0.5194239802
    8      N      -2.3236939992    -0.0028759227    -0.1822201685
    9      H      -2.8441088442     0.8241598553     0.0646142961
   10      H      -2.8439145459    -0.8178608285     0.1022572893
 ----------------------------------------------------------------

    7    -422.4116215972      8.55E-08 Convergence criterion met
 Total energy in the final basis set = -422.41162160
        MP2         total energy =                  -423.04144892 au

                    Orbital Energies (a.u.)
 --------------------------------------------------------------

 Alpha MOs
 -- Occupied --
-68.774 -20.569 -15.532  -6.120  -4.226  -4.226  -4.226  -1.354
 -1.131  -0.716  -0.715  -0.650  -0.587  -0.547  -0.511  -0.487
 -0.472  -0.398

          Ground-State Mulliken Net Atomic Charges

     Atom                 Charge (a.u.)
  ----------------------------------------
      1 O                    -0.459318
      2 H                     0.226381
      3 H                     0.225974
      4 Si                    1.032377
      5 H                    -0.274232
      6 H                    -0.253884
      7 H                    -0.249729
      8 N                    -0.491924
      9 H                     0.122230
     10 H                     0.122126
  ----------------------------------------
  Sum of atomic charges =     0.000000

                    Cartesian Multipole Moments
 -----------------------------------------------------------------
    Charge (ESU x 10^10)
                 0.0000
    Dipole Moment (Debye)
         X      -0.4348      Y       0.0993      Z      -0.9691
       Tot       1.0669
    Quadrupole Moments (Debye-Ang)
        XX     -24.8398     XY       0.2013     YY     -25.2314
        XZ      -9.0880     YZ       0.0031     ZZ     -30.4440

 Total job time:  263.56s(wall), 515.99s(cpu)
        *  Thank you very much for using Q-Chem.  Have a nice day.  *
