 Q-Chem 5.1, Q-Chem, Inc., Pleasanton, CA (2018)
 Q-Chem 5.1.2 for Intel X86 EM64T Linux

User input:
--------------------------------------------------------------
$molecule
0 1
--
0 1
O     2.640573347     0.387661768     0.484745646
H     2.428921256     0.658206165     1.379755289
H     1.777509297     0.191546571     0.091553062
--
0 1
Si    -3.373983153    -0.254041175    -0.349553867
H    -4.671840702    -0.517734520    -1.015774793
H    -3.352679827     1.157703992     0.082992990
H    -3.260801779    -1.159808481     0.811296915
N    -1.958808653    -0.509553345    -1.339510044
H    -1.843415168     0.097902547    -2.138359055
H    -1.769709414    -1.458973423    -1.627890601
$end

$rem
BASIS = aug-cc-pVTZ
JOB_TYPE  =  BSSE
METHOD  =  MP2
SCF_CONVERGENCE  =  7
SCF_MAX_CYCLES  =  200
$end

--------------------------------------------------------------

             Standard Nuclear Orientation (Angstroms)
    I     Atom           X                Y                Z
 ----------------------------------------------------------------
    1      O       4.1626615192     0.0979840795    -0.0026557973
    2      H       4.1495530519     1.0563293230     0.0182176727
    3      H       3.2257504585    -0.1470223488     0.0078631076
    4      Si     -1.9366634362     0.3825163729    -0.0004883295
    5      H      -3.3553622520    -0.0460639556    -0.0383207498
    6      H      -1.6697859869     1.2099608113    -1.1940909267
    7      H      -1.7247637527     1.1619215197     1.2358065849
    8      N      -0.7637776893    -0.9106794601     0.0009708138
    9      H      -0.7227702706    -1.4922014674    -0.8240313717
   10      H      -0.7441814695    -1.5072695181     0.8158429775
 ----------------------------------------------------------------

    8    -422.4115786266      8.54E-08 Convergence criterion met
 Total energy in the final basis set = -422.41157863
        MP2         total energy =                  -423.04069062 au

                    Orbital Energies (a.u.)
 --------------------------------------------------------------

 Alpha MOs
 -- Occupied --
-68.785 -20.563 -15.545  -6.131  -4.238  -4.238  -4.237  -1.345
 -1.141  -0.726  -0.707  -0.659  -0.579  -0.557  -0.504  -0.498
 -0.482  -0.412

          Ground-State Mulliken Net Atomic Charges

     Atom                 Charge (a.u.)
  ----------------------------------------
      1 O                    -0.473159
      2 H                     0.214626
      3 H                     0.257012
      4 Si                    1.057817
      5 H                    -0.316592
      6 H                    -0.277564
      7 H                    -0.278219
      8 N                    -0.433393
      9 H                     0.124969
     10 H                     0.124503
  ----------------------------------------
  Sum of atomic charges =     0.000000

                    Cartesian Multipole Moments
 -----------------------------------------------------------------
    Charge (ESU x 10^10)
                 0.0000
    Dipole Moment (Debye)
         X      -2.0961      Y       0.0012      Z       0.0314
       Tot       2.0963
    Quadrupole Moments (Debye-Ang)
        XX     -42.4053     XY       6.5010     YY     -24.3893
        XZ       0.1691     YZ       0.0502     ZZ     -28.3786

 Total job time:  229.72s(wall), 463.66s(cpu)
        *  Thank you very much for using Q-Chem.  Have a nice day.  *
