 Q-Chem 5.1, Q-Chem, Inc., Pleasanton, CA (2018)
 Q-Chem 5.1.2 for Intel X86 EM64T Linux

User input:
--------------------------------------------------------------
$molecule
0 1
--
0 1
O     2.640573347     0.387661768     0.484745646
H     2.428921256     0.658206165     1.379755289
H     1.777509297     0.191546571     0.091553062
--
0 1
Si    -1.149977638     0.043558805     0.137360940
H    -2.447835187    -0.220134540    -0.528859986
H    -1.128674312     1.455303972     0.569907797
H    -1.036796263    -0.862208501     1.298211722
N     0.265196862    -0.211953365    -0.852595238
H     0.380590348     0.395502527    -1.651444248
H     0.454296101    -1.161373443    -1.140975795
$end

$rem
BASIS = aug-cc-pVTZ
JOB_TYPE  =  BSSE
METHOD  =  MP2
SCF_CONVERGENCE  =  7
SCF_MAX_CYCLES  =  200
$end

--------------------------------------------------------------

             Standard Nuclear Orientation (Angstroms)
    I     Atom           X                Y                Z
 ----------------------------------------------------------------
    1      O       2.4951653003     0.2297228537    -0.0023240670
    2      H       2.4098410617     1.1843517848     0.0185689377
    3      H       1.5793920832    -0.0852228267     0.0081528695
    4      Si     -1.3260436514     0.3053469090    -0.0006203250
    5      H      -2.7083914519    -0.2289723613    -0.0385174997
    6      H      -1.1222641584     1.1505854379    -1.1941951149
    7      H      -1.1735550836     1.0984800475     1.2356992274
    8      N      -0.0589984881    -0.8957413218     0.0008578836
    9      H       0.0257658186    -1.4724969478    -0.8241548546
   10      H       0.0054898637    -1.4891754369     0.8157183353
 ----------------------------------------------------------------

    9    -422.4124905544      3.82E-08 Convergence criterion met
 Total energy in the final basis set = -422.41249055
        MP2         total energy =                  -423.04726621 au

                    Orbital Energies (a.u.)
 --------------------------------------------------------------

 Alpha MOs
 -- Occupied --
-68.796 -20.525 -15.560  -6.142  -4.249  -4.249  -4.248  -1.315
 -1.162  -0.739  -0.685  -0.676  -0.576  -0.555  -0.506  -0.492
 -0.473  -0.428

          Ground-State Mulliken Net Atomic Charges

     Atom                 Charge (a.u.)
  ----------------------------------------
      1 O                    -0.535036
      2 H                     0.172782
      3 H                     0.301783
      4 Si                    1.032724
      5 H                    -0.386980
      6 H                    -0.279539
      7 H                    -0.279900
      8 N                    -0.100638
      9 H                     0.036855
     10 H                     0.037950
  ----------------------------------------
  Sum of atomic charges =    -0.000000

                    Cartesian Multipole Moments
 -----------------------------------------------------------------
    Charge (ESU x 10^10)
                -0.0000
    Dipole Moment (Debye)
         X      -2.8231      Y      -0.4533      Z       0.0276
       Tot       2.8594
    Quadrupole Moments (Debye-Ang)
        XX     -39.3874     XY       2.2935     YY     -23.7501
        XZ       0.0690     YZ       0.0515     ZZ     -28.1294

 Total job time:  335.18s(wall), 695.49s(cpu)
        *  Thank you very much for using Q-Chem.  Have a nice day.  *
