 Q-Chem 5.1, Q-Chem, Inc., Pleasanton, CA (2018)
 Q-Chem 5.1.2 for Intel X86 EM64T Linux

User input:
--------------------------------------------------------------
$molecule
0 1
--
0 1
O     2.640573347     0.387661768     0.484745646
H     2.428921256     0.658206165     1.379755289
H     1.777509297     0.191546571     0.091553062
--
0 1
Si    -0.938789216     0.071818478     0.183597682
H    -2.236646765    -0.191874866    -0.482623244
H    -0.917485890     1.483563646     0.616144539
H    -0.825607841    -0.833948827     1.344448464
N     0.476385284    -0.183693691    -0.806358496
H     0.591778770     0.423762200    -1.605207506
H     0.665484523    -1.133113769    -1.094739052
$end

$rem
BASIS = aug-cc-pVTZ
JOB_TYPE  =  BSSE
METHOD  =  MP2
SCF_CONVERGENCE  =  7
SCF_MAX_CYCLES  =  200
$end

--------------------------------------------------------------

             Standard Nuclear Orientation (Angstroms)
    I     Atom           X                Y                Z
 ----------------------------------------------------------------
    1      O       2.3345842616     0.2532440195    -0.0022669574
    2      H       2.2326106680     1.2062379989     0.0186376075
    3      H       1.4244474113    -0.0776376594     0.0081906411
    4      Si     -1.2710975194     0.2898458557    -0.0006429689
    5      H      -2.6439081667    -0.2685188783    -0.0385701350
    6      H      -1.0820824471     1.1385289273    -1.1942029302
    7      H      -1.1324954970     1.0855025574     1.2356898605
    8      N       0.0167183033    -0.8889445313     0.0008397668
    9      H       0.1115497132    -1.4641213923    -0.8241794082
   10      H       0.0915413749    -1.4811739703     0.8156932208
 ----------------------------------------------------------------

    9    -422.4050650161      4.82E-08 Convergence criterion met
 Total energy in the final basis set = -422.40506502
        MP2         total energy =                  -423.04224414 au

                    Orbital Energies (a.u.)
 --------------------------------------------------------------

 Alpha MOs
 -- Occupied --
-68.798 -20.512 -15.562  -6.145  -4.251  -4.251  -4.251  -1.308
 -1.168  -0.743  -0.686  -0.681  -0.581  -0.550  -0.504  -0.494
 -0.463  -0.427

          Ground-State Mulliken Net Atomic Charges

     Atom                 Charge (a.u.)
  ----------------------------------------
      1 O                    -0.559525
      2 H                     0.159085
      3 H                     0.252616
      4 Si                    1.017606
      5 H                    -0.381333
      6 H                    -0.280101
      7 H                    -0.279821
      8 N                     0.024679
      9 H                     0.023186
     10 H                     0.023607
  ----------------------------------------
  Sum of atomic charges =     0.000000

                    Cartesian Multipole Moments
 -----------------------------------------------------------------
    Charge (ESU x 10^10)
                 0.0000
    Dipole Moment (Debye)
         X      -3.0095      Y      -0.6179      Z       0.0270
       Tot       3.0724
    Quadrupole Moments (Debye-Ang)
        XX     -39.3551     XY       1.5823     YY     -23.6496
        XZ       0.0594     YZ       0.0510     ZZ     -28.0445

 Total job time:  365.72s(wall), 775.85s(cpu)
        *  Thank you very much for using Q-Chem.  Have a nice day.  *
