 Q-Chem 5.1, Q-Chem, Inc., Pleasanton, CA (2018)
 Q-Chem 5.1.2 for Intel X86 EM64T Linux

User input:
--------------------------------------------------------------
$molecule
0 1
--
0 1
Si     2.701607000     0.125690888    -0.270400178
H     3.881940247    -0.764955877    -0.394351651
H     3.074781685     1.254572160     0.606696963
H     2.345683281     0.606987292    -1.620593772
N     1.274958878    -0.611037074     0.407064268
H     1.327705539    -0.932294968     1.362965471
H     0.821958737    -1.325136373    -0.145472211
--
0 1
Si    -2.600909530    -0.035217472    -0.254095329
H    -2.644934111     0.663341330    -1.566383916
H    -3.990663995    -0.093892915     0.250030403
H    -2.098287388    -1.405381902    -0.510464066
N    -1.589782704     0.658761898     0.961140040
H    -1.815136691     1.574502223     1.314535085
H    -0.590691086     0.560243531     0.824499239
$end

$rem
BASIS = aug-cc-pVTZ
JOB_TYPE  =  BSSE
METHOD  =  MP2
SCF_CONVERGENCE  =  8
SCF_MAX_CYCLES  =  200
$end

--------------------------------------------------------------

             Standard Nuclear Orientation (Angstroms)
    I     Atom           X                Y                Z
 ----------------------------------------------------------------
    1      Si     -2.7153465758    -0.1072773945     0.2690341686
    2      H      -3.9259985904    -0.6181352360    -0.4202757522
    3      H      -3.0254886749     1.2386863015     0.7935580230
    4      H      -2.3875885497    -1.0356519515     1.3699637856
    5      N      -1.2914593208     0.0363832401    -0.7254293736
    6      H      -1.3238576505     0.6950391679    -1.4901899059
    7      H      -0.8784718378    -0.8223996186    -1.0606559203
    8      Si      2.5775150557    -0.4035673664     0.0673738055
    9      H       2.6015997879    -1.1749446231     1.3387592517
   10      H       3.9800389869    -0.0605639189    -0.2555476891
   11      H       2.0248872095    -1.3023285585    -0.9730757586
   12      N       1.6272863684     1.0378231166     0.0518578950
   13      H       1.8919279992     1.7995409451     0.6551849846
   14      H       0.6218032680     0.9131396481     0.0475676939
 ----------------------------------------------------------------

   10    -692.7028416874      3.23E-09 Convergence criterion met
 Total energy in the final basis set = -692.70284169
        MP2         total energy =                  -693.42738189 au

                    Orbital Energies (a.u.)
 --------------------------------------------------------------

 Alpha MOs
 -- Occupied --
-68.788 -68.772 -15.549 -15.523  -6.134  -6.118  -4.240  -4.240
 -4.240  -4.224  -4.224  -4.224  -1.149  -1.123  -0.730  -0.712
 -0.664  -0.647  -0.563  -0.544  -0.500  -0.485  -0.484  -0.469
 -0.417  -0.392

          Ground-State Mulliken Net Atomic Charges

     Atom                 Charge (a.u.)
  ----------------------------------------
      1 Si                    0.981398
      2 H                    -0.347185
      3 H                    -0.285371
      4 H                    -0.283219
      5 N                    -0.264756
      6 H                     0.096156
      7 H                     0.103685
      8 Si                    1.092504
      9 H                    -0.358190
     10 H                    -0.321051
     11 H                    -0.310252
     12 N                    -0.517279
     13 H                     0.114792
     14 H                     0.298768
  ----------------------------------------
  Sum of atomic charges =    -0.000000

                    Cartesian Multipole Moments
 -----------------------------------------------------------------
    Charge (ESU x 10^10)
                -0.0000
    Dipole Moment (Debye)
         X      -1.2636      Y       0.2172      Z      -0.3299
       Tot       1.3239
    Quadrupole Moments (Debye-Ang)
        XX     -48.1512     XY       0.3820     YY     -43.3452
        XZ       2.8109     YZ       1.9591     ZZ     -43.6738

 Total job time:  1351.73s(wall), 3740.99s(cpu)
        *  Thank you very much for using Q-Chem.  Have a nice day.  *
