 Q-Chem 5.1, Q-Chem, Inc., Pleasanton, CA (2018)
 Q-Chem 5.1.2 for Intel X86 EM64T Linux

User input:
--------------------------------------------------------------
$molecule
0 1
Si     1.924810978     0.221250999     0.126279543
H     1.412655312     0.307098559     1.517792385
H     1.133853934    -0.817922695    -0.568974842
H     1.726171862     1.539629336    -0.510559482
N     3.598001176    -0.193061537    -0.046238154
H     3.898337608    -1.114121400     0.229631138
H     4.290301474     0.485203856     0.228290528
Si    -2.309123078    -0.372734837    -0.212647851
H    -2.076315056    -0.815439505    -1.610927846
H    -1.884454527    -1.469145596     0.682637242
H    -1.481187943     0.831702183     0.015079462
N    -3.943110221     0.035178759     0.194290923
H    -4.625792779    -0.704533240     0.235284653
H    -4.354138592     0.850325606    -0.231783597
$end

$rem
BASIS = aug-cc-pVTZ
JOB_TYPE  =  SP
METHOD  =  MP2
SCF_MAX_CYCLES  =  200
$end

--------------------------------------------------------------

    6    -692.7011892783      6.11e-06  Convergence criterion met
 Total energy in the final basis set =     -692.7011892783
        MP2         total energy =                  -693.42283962 au
 Total job time:  353.94s(wall), 2097.47s(cpu)
        *  Thank you very much for using Q-Chem.  Have a nice day.  *
 Q-Chem 5.1, Q-Chem, Inc., Pleasanton, CA (2018)
 Q-Chem 5.1.2 for Intel X86 EM64T Linux

User input:
--------------------------------------------------------------

$molecule
0 1
Si     1.924810978     0.221250999     0.126279543
H     1.412655312     0.307098559     1.517792385
H     1.133853934    -0.817922695    -0.568974842
H     1.726171862     1.539629336    -0.510559482
N     3.598001176    -0.193061537    -0.046238154
H     3.898337608    -1.114121400     0.229631138
H     4.290301474     0.485203856     0.228290528
@Si   -2.309123078    -0.372734837    -0.212647851
@H    -2.076315056    -0.815439505    -1.610927846
@H    -1.884454527    -1.469145596     0.682637242
@H    -1.481187943     0.831702183     0.015079462
@N    -3.943110221     0.035178759     0.194290923
@H    -4.625792779    -0.704533240     0.235284653
@H    -4.354138592     0.850325606    -0.231783597
$end

$rem
BASIS = aug-cc-pVTZ
JOB_TYPE  =  SP
METHOD  =  MP2
SCF_MAX_CYCLES  =  200
$end

--------------------------------------------------------------

    6    -346.3508279431      4.33e-06  Convergence criterion met
 Total energy in the final basis set =     -346.3508279431
        MP2         total energy =                  -346.71066999 au
 Total job time:  199.94s(wall), 1192.13s(cpu)
        *  Thank you very much for using Q-Chem.  Have a nice day.  *
 Q-Chem 5.1, Q-Chem, Inc., Pleasanton, CA (2018)
 Q-Chem 5.1.2 for Intel X86 EM64T Linux

User input:
--------------------------------------------------------------

$molecule
0 1
@Si     1.924810978     0.221250999     0.126279543
@H      1.412655312     0.307098559     1.517792385
@H      1.133853934    -0.817922695    -0.568974842
@H      1.726171862     1.539629336    -0.510559482
@N      3.598001176    -0.193061537    -0.046238154
@H      3.898337608    -1.114121400     0.229631138
@H      4.290301474     0.485203856     0.228290528
Si    -2.309123078    -0.372734837    -0.212647851
H     -2.076315056    -0.815439505    -1.610927846
H     -1.884454527    -1.469145596     0.682637242
H     -1.481187943     0.831702183     0.015079462
N     -3.943110221     0.035178759     0.194290923
H     -4.625792779    -0.704533240     0.235284653
H     -4.354138592     0.850325606    -0.231783597
$end

$rem
BASIS = aug-cc-pVTZ
JOB_TYPE  =  SP
METHOD  =  MP2
SCF_MAX_CYCLES  =  200
$end

--------------------------------------------------------------

             Standard Nuclear Orientation (Angstroms)
    I     Atom           X                Y                Z
 ----------------------------------------------------------------
    1      GH      1.9248109780     0.2212509990     0.1262795430
    2      GH      1.4126553120     0.3070985590     1.5177923850
    3      GH      1.1338539340    -0.8179226950    -0.5689748420
    4      GH      1.7261718620     1.5396293360    -0.5105594820
    5      GH      3.5980011760    -0.1930615370    -0.0462381540
    6      GH      3.8983376080    -1.1141214000     0.2296311380
    7      GH      4.2903014740     0.4852038560     0.2282905280
    8      Si     -2.3091230780    -0.3727348370    -0.2126478510
    9      H      -2.0763150560    -0.8154395050    -1.6109278460
   10      H      -1.8844545270    -1.4691455960     0.6826372420
   11      H      -1.4811879430     0.8317021830     0.0150794620
   12      N      -3.9431102210     0.0351787590     0.1942909230
   13      H      -4.6257927790    -0.7045332400     0.2352846530
   14      H      -4.3541385920     0.8503256060    -0.2317835970
 ----------------------------------------------------------------

    6    -346.3508231053      4.34e-06  Convergence criterion met
 Total energy in the final basis set =     -346.3508231053
        MP2         total energy =                  -346.71067480 au

                    Orbital Energies (a.u.)
 --------------------------------------------------------------

 Alpha MOs
 -- Occupied --
-68.778 -15.538  -6.125  -4.231  -4.231  -4.231  -1.137  -0.721
 -0.657  -0.554  -0.492  -0.475  -0.404

          Ground-State Mulliken Net Atomic Charges

     Atom                 Charge (a.u.)
  ----------------------------------------
      1 GH                    0.028473
      2 GH                   -0.001912
      3 GH                    0.008081
      4 GH                    0.000166
      5 GH                   -0.002309
      6 GH                   -0.000198
      7 GH                    0.000037
      8 Si                    1.072253
      9 H                    -0.307536
     10 H                    -0.259453
     11 H                    -0.239436
     12 N                    -0.547761
     13 H                     0.119539
     14 H                     0.130056
  ----------------------------------------
  Sum of atomic charges =    -0.000001

                    Cartesian Multipole Moments
 -----------------------------------------------------------------
    Charge (ESU x 10^10)
                -0.0000
    Dipole Moment (Debye)
         X      -1.0490      Y      -0.0346      Z      -0.6845
       Tot       1.2531
    Quadrupole Moments (Debye-Ang)
        XX     -14.0921     XY       0.5133     YY     -21.2019
        XZ       3.0751     YZ      -1.0917     ZZ     -24.2918

 Total job time:  199.84s(wall), 1191.22s(cpu)
        *  Thank you very much for using Q-Chem.  Have a nice day.  *
