 Q-Chem 5.1, Q-Chem, Inc., Pleasanton, CA (2018)
 Q-Chem 5.1.2 for Intel X86 EM64T Linux

User input:
--------------------------------------------------------------
$molecule
0 1
Si     1.924810978     0.221250999     0.126279543
H     1.412655312     0.307098559     1.517792385
H     1.133853934    -0.817922695    -0.568974842
H     1.726171862     1.539629336    -0.510559482
N     3.598001176    -0.193061537    -0.046238154
H     3.898337608    -1.114121400     0.229631138
H     4.290301474     0.485203856     0.228290528
Si    -2.661084382    -0.394003718    -0.223795837
H    -2.428276360    -0.836708386    -1.622075832
H    -2.236415832    -1.490414477     0.671489256
H    -1.833149247     0.810433302     0.003931476
N    -4.295071525     0.013909878     0.183142938
H    -4.977754083    -0.725802121     0.224136667
H    -4.706099896     0.829056725    -0.242931582
$end

$rem
BASIS = aug-cc-pVTZ
JOB_TYPE  =  SP
METHOD  =  MP2
SCF_MAX_CYCLES  =  200
$end

--------------------------------------------------------------

    6    -692.7014843212      6.12e-06  Convergence criterion met
 Total energy in the final basis set =     -692.7014843212
        MP2         total energy =                  -693.42223534 au
 Total job time:  329.14s(wall), 1948.72s(cpu)
        *  Thank you very much for using Q-Chem.  Have a nice day.  *
 Q-Chem 5.1, Q-Chem, Inc., Pleasanton, CA (2018)
 Q-Chem 5.1.2 for Intel X86 EM64T Linux

User input:
--------------------------------------------------------------

$molecule
0 1
Si     1.924810978     0.221250999     0.126279543
H     1.412655312     0.307098559     1.517792385
H     1.133853934    -0.817922695    -0.568974842
H     1.726171862     1.539629336    -0.510559482
N     3.598001176    -0.193061537    -0.046238154
H     3.898337608    -1.114121400     0.229631138
H     4.290301474     0.485203856     0.228290528
@Si   -2.661084382    -0.394003718    -0.223795837
@H    -2.428276360    -0.836708386    -1.622075832
@H    -2.236415832    -1.490414477     0.671489256
@H    -1.833149247     0.810433302     0.003931476
@N    -4.295071525     0.013909878     0.183142938
@H    -4.977754083    -0.725802121     0.224136667
@H    -4.706099896     0.829056725    -0.242931582
$end

$rem
BASIS = aug-cc-pVTZ
JOB_TYPE  =  SP
METHOD  =  MP2
SCF_MAX_CYCLES  =  200
$end

--------------------------------------------------------------

    6    -346.3508078727      4.33e-06  Convergence criterion met
 Total energy in the final basis set =     -346.3508078727
        MP2         total energy =                  -346.71059523 au
 Total job time:  182.85s(wall), 1090.00s(cpu)
        *  Thank you very much for using Q-Chem.  Have a nice day.  *
 Q-Chem 5.1, Q-Chem, Inc., Pleasanton, CA (2018)
 Q-Chem 5.1.2 for Intel X86 EM64T Linux

User input:
--------------------------------------------------------------

$molecule
0 1
@Si     1.924810978     0.221250999     0.126279543
@H      1.412655312     0.307098559     1.517792385
@H      1.133853934    -0.817922695    -0.568974842
@H      1.726171862     1.539629336    -0.510559482
@N      3.598001176    -0.193061537    -0.046238154
@H      3.898337608    -1.114121400     0.229631138
@H      4.290301474     0.485203856     0.228290528
Si    -2.661084382    -0.394003718    -0.223795837
H     -2.428276360    -0.836708386    -1.622075832
H     -2.236415832    -1.490414477     0.671489256
H     -1.833149247     0.810433302     0.003931476
N     -4.295071525     0.013909878     0.183142938
H     -4.977754083    -0.725802121     0.224136667
H     -4.706099896     0.829056725    -0.242931582
$end

$rem
BASIS = aug-cc-pVTZ
JOB_TYPE  =  SP
METHOD  =  MP2
SCF_MAX_CYCLES  =  200
$end

--------------------------------------------------------------

             Standard Nuclear Orientation (Angstroms)
    I     Atom           X                Y                Z
 ----------------------------------------------------------------
    1      GH      1.9248109780     0.2212509990     0.1262795430
    2      GH      1.4126553120     0.3070985590     1.5177923850
    3      GH      1.1338539340    -0.8179226950    -0.5689748420
    4      GH      1.7261718620     1.5396293360    -0.5105594820
    5      GH      3.5980011760    -0.1930615370    -0.0462381540
    6      GH      3.8983376080    -1.1141214000     0.2296311380
    7      GH      4.2903014740     0.4852038560     0.2282905280
    8      Si     -2.6610843820    -0.3940037180    -0.2237958370
    9      H      -2.4282763600    -0.8367083860    -1.6220758320
   10      H      -2.2364158320    -1.4904144770     0.6714892560
   11      H      -1.8331492470     0.8104333020     0.0039314760
   12      N      -4.2950715250     0.0139098780     0.1831429380
   13      H      -4.9777540830    -0.7258021210     0.2241366670
   14      H      -4.7060998960     0.8290567250    -0.2429315820
 ----------------------------------------------------------------

    6    -346.3508018953      4.34e-06  Convergence criterion met
 Total energy in the final basis set =     -346.3508018953
        MP2         total energy =                  -346.71059958 au

                    Orbital Energies (a.u.)
 --------------------------------------------------------------

 Alpha MOs
 -- Occupied --
-68.778 -15.538  -6.125  -4.231  -4.231  -4.231  -1.137  -0.721
 -0.657  -0.554  -0.492  -0.475  -0.404

          Ground-State Mulliken Net Atomic Charges

     Atom                 Charge (a.u.)
  ----------------------------------------
      1 GH                    0.016488
      2 GH                   -0.001062
      3 GH                    0.004531
      4 GH                   -0.000442
      5 GH                   -0.000601
      6 GH                   -0.000048
      7 GH                    0.000007
      8 Si                    1.062534
      9 H                    -0.309566
     10 H                    -0.262498
     11 H                    -0.254198
     12 N                    -0.508836
     13 H                     0.123798
     14 H                     0.129892
  ----------------------------------------
  Sum of atomic charges =    -0.000002

                    Cartesian Multipole Moments
 -----------------------------------------------------------------
    Charge (ESU x 10^10)
                -0.0000
    Dipole Moment (Debye)
         X      -1.0489      Y      -0.0346      Z      -0.6846
       Tot       1.2531
    Quadrupole Moments (Debye-Ang)
        XX     -13.3547     XY       0.5482     YY     -21.2000
        XZ       3.3281     YZ      -1.0773     ZZ     -24.2775

 Total job time:  183.50s(wall), 1093.77s(cpu)
        *  Thank you very much for using Q-Chem.  Have a nice day.  *
