 Q-Chem 5.1, Q-Chem, Inc., Pleasanton, CA (2018)
 Q-Chem 5.1.2 for Intel X86 EM64T Linux

User input:
--------------------------------------------------------------
$molecule
0 1
Si     1.924810978     0.221250999     0.126279543
H     1.412655312     0.307098559     1.517792385
H     1.133853934    -0.817922695    -0.568974842
H     1.726171862     1.539629336    -0.510559482
N     3.598001176    -0.193061537    -0.046238154
H     3.898337608    -1.114121400     0.229631138
H     4.290301474     0.485203856     0.228290528
Si    -1.532378075    -0.325796447    -0.188045311
H    -1.299570052    -0.768501115    -1.586325306
H    -1.107709524    -1.422207205     0.707239783
H    -0.704442940     0.878640573     0.039682003
N    -3.166365218     0.082117149     0.218893464
H    -3.849047776    -0.657594850     0.259887193
H    -3.577393589     0.897263996    -0.207181056
$end

$rem
BASIS = aug-cc-pVTZ
JOB_TYPE  =  SP
METHOD  =  MP2
SCF_MAX_CYCLES  =  200
$end

--------------------------------------------------------------

    6    -692.6957889563      5.93e-06  Convergence criterion met
 Total energy in the final basis set =     -692.6957889563
        MP2         total energy =                  -693.42237320 au
 Total job time:  411.84s(wall), 2442.77s(cpu)
        *  Thank you very much for using Q-Chem.  Have a nice day.  *
 Q-Chem 5.1, Q-Chem, Inc., Pleasanton, CA (2018)
 Q-Chem 5.1.2 for Intel X86 EM64T Linux

User input:
--------------------------------------------------------------

$molecule
0 1
Si     1.924810978     0.221250999     0.126279543
H     1.412655312     0.307098559     1.517792385
H     1.133853934    -0.817922695    -0.568974842
H     1.726171862     1.539629336    -0.510559482
N     3.598001176    -0.193061537    -0.046238154
H     3.898337608    -1.114121400     0.229631138
H     4.290301474     0.485203856     0.228290528
@Si   -1.532378075    -0.325796447    -0.188045311
@H    -1.299570052    -0.768501115    -1.586325306
@H    -1.107709524    -1.422207205     0.707239783
@H    -0.704442940     0.878640573     0.039682003
@N    -3.166365218     0.082117149     0.218893464
@H    -3.849047776    -0.657594850     0.259887193
@H    -3.577393589     0.897263996    -0.207181056
$end

$rem
BASIS = aug-cc-pVTZ
JOB_TYPE  =  SP
METHOD  =  MP2
SCF_MAX_CYCLES  =  200
$end

--------------------------------------------------------------

    6    -346.3509162136      4.33e-06  Convergence criterion met
 Total energy in the final basis set =     -346.3509162136
        MP2         total energy =                  -346.71095545 au
 Total job time:  234.98s(wall), 1400.49s(cpu)
        *  Thank you very much for using Q-Chem.  Have a nice day.  *
 Q-Chem 5.1, Q-Chem, Inc., Pleasanton, CA (2018)
 Q-Chem 5.1.2 for Intel X86 EM64T Linux

User input:
--------------------------------------------------------------

$molecule
0 1
@Si     1.924810978     0.221250999     0.126279543
@H      1.412655312     0.307098559     1.517792385
@H      1.133853934    -0.817922695    -0.568974842
@H      1.726171862     1.539629336    -0.510559482
@N      3.598001176    -0.193061537    -0.046238154
@H      3.898337608    -1.114121400     0.229631138
@H      4.290301474     0.485203856     0.228290528
Si    -1.532378075    -0.325796447    -0.188045311
H     -1.299570052    -0.768501115    -1.586325306
H     -1.107709524    -1.422207205     0.707239783
H     -0.704442940     0.878640573     0.039682003
N     -3.166365218     0.082117149     0.218893464
H     -3.849047776    -0.657594850     0.259887193
H     -3.577393589     0.897263996    -0.207181056
$end

$rem
BASIS = aug-cc-pVTZ
JOB_TYPE  =  SP
METHOD  =  MP2
SCF_MAX_CYCLES  =  200
$end

--------------------------------------------------------------

             Standard Nuclear Orientation (Angstroms)
    I     Atom           X                Y                Z
 ----------------------------------------------------------------
    1      GH      1.9248109780     0.2212509990     0.1262795430
    2      GH      1.4126553120     0.3070985590     1.5177923850
    3      GH      1.1338539340    -0.8179226950    -0.5689748420
    4      GH      1.7261718620     1.5396293360    -0.5105594820
    5      GH      3.5980011760    -0.1930615370    -0.0462381540
    6      GH      3.8983376080    -1.1141214000     0.2296311380
    7      GH      4.2903014740     0.4852038560     0.2282905280
    8      Si     -1.5323780750    -0.3257964470    -0.1880453110
    9      H      -1.2995700520    -0.7685011150    -1.5863253060
   10      H      -1.1077095240    -1.4222072050     0.7072397830
   11      H      -0.7044429400     0.8786405730     0.0396820030
   12      N      -3.1663652180     0.0821171490     0.2188934640
   13      H      -3.8490477760    -0.6575948500     0.2598871930
   14      H      -3.5773935890     0.8972639960    -0.2071810560
 ----------------------------------------------------------------

    6    -346.3509022592      4.35e-06  Convergence criterion met
 Total energy in the final basis set =     -346.3509022592
        MP2         total energy =                  -346.71095243 au

                    Orbital Energies (a.u.)
 --------------------------------------------------------------

 Alpha MOs
 -- Occupied --
-68.779 -15.538  -6.125  -4.231  -4.231  -4.231  -1.137  -0.721
 -0.657  -0.554  -0.492  -0.475  -0.404

          Ground-State Mulliken Net Atomic Charges

     Atom                 Charge (a.u.)
  ----------------------------------------
      1 GH                   -0.000363
      2 GH                    0.000496
      3 GH                   -0.025138
      4 GH                    0.009904
      5 GH                   -0.010777
      6 GH                   -0.000581
      7 GH                    0.000029
      8 Si                    1.216237
      9 H                    -0.317670
     10 H                    -0.263079
     11 H                    -0.189968
     12 N                    -0.662824
     13 H                     0.111747
     14 H                     0.131987
  ----------------------------------------
  Sum of atomic charges =    -0.000000

                    Cartesian Multipole Moments
 -----------------------------------------------------------------
    Charge (ESU x 10^10)
                -0.0000
    Dipole Moment (Debye)
         X      -1.0493      Y      -0.0343      Z      -0.6843
       Tot       1.2532
    Quadrupole Moments (Debye-Ang)
        XX     -15.7195     XY       0.4367     YY     -21.2059
        XZ       2.5176     YZ      -1.1236     ZZ     -24.3228

 Total job time:  233.16s(wall), 1390.94s(cpu)
        *  Thank you very much for using Q-Chem.  Have a nice day.  *
