 Q-Chem 5.1, Q-Chem, Inc., Pleasanton, CA (2018)
 Q-Chem 5.1.2 for Intel X86 EM64T Linux

User input:
--------------------------------------------------------------
$molecule
0 1
--
0 1
O     2.727262800     0.140250979     0.206246615
H     2.747771752     1.047748175    -0.107062323
H     2.825602485    -0.377966203    -0.596211209
--
0 1
Si    -1.755474503    -0.088774357     0.165449377
H    -1.334382851    -0.419437328     1.546171118
H    -1.294215721     1.279016365    -0.155170588
H    -1.174378943    -1.082844465    -0.761343769
N    -3.470789617    -0.104966173    -0.117669402
H    -4.034183914     0.590382614     0.345821671
H    -3.946445862    -0.992812075    -0.082483793
$end

$rem
BASIS = aug-cc-pVTZ
JOB_TYPE  =  BSSE
METHOD  =  MP2
SCF_CONVERGENCE  =  7
SCF_MAX_CYCLES  =  200
$end

--------------------------------------------------------------

             Standard Nuclear Orientation (Angstroms)
    I     Atom           X                Y                Z
 ----------------------------------------------------------------
    1      O       3.6558710071    -0.0059191041     0.0760166675
    2      H       3.7198736571     0.7733949511    -0.4813947898
    3      H       3.7178217822    -0.7344998257    -0.5464707092
    4      Si     -0.8328820771     0.0013730504     0.0856769299
    5      H      -0.4135382606     0.0530665467     1.5050173584
    6      H      -0.3049191521     1.1960022455    -0.6075218303
    7      H      -0.3150334619    -1.2437424127    -0.5195612549
    8      N      -2.5498927011    -0.0031187537    -0.1874140789
    9      H      -3.0709692903     0.8238772005     0.0581544941
   10      H      -3.0706053442    -0.8181373020     0.0960649248
 ----------------------------------------------------------------

    7    -422.4111907059      3.92E-08 Convergence criterion met
 Total energy in the final basis set = -422.41119071
        MP2         total energy =                  -423.04010462 au

                    Orbital Energies (a.u.)
 --------------------------------------------------------------

 Alpha MOs
 -- Occupied --
-68.776 -20.568 -15.534  -6.122  -4.228  -4.228  -4.228  -1.352
 -1.132  -0.717  -0.714  -0.651  -0.586  -0.548  -0.510  -0.490
 -0.474  -0.400

          Ground-State Mulliken Net Atomic Charges

     Atom                 Charge (a.u.)
  ----------------------------------------
      1 O                    -0.447594
      2 H                     0.224110
      3 H                     0.224040
      4 Si                    1.040068
      5 H                    -0.299078
      6 H                    -0.268193
      7 H                    -0.265329
      8 N                    -0.458126
      9 H                     0.124937
     10 H                     0.125166
  ----------------------------------------
  Sum of atomic charges =     0.000000

                    Cartesian Multipole Moments
 -----------------------------------------------------------------
    Charge (ESU x 10^10)
                 0.0000
    Dipole Moment (Debye)
         X      -0.5190      Y       0.1012      Z      -1.0183
       Tot       1.1474
    Quadrupole Moments (Debye-Ang)
        XX     -24.2184     XY       0.2461     YY     -25.1672
        XZ     -10.4622     YZ       0.0023     ZZ     -30.4603

 Total job time:  238.78s(wall), 469.69s(cpu)
        *  Thank you very much for using Q-Chem.  Have a nice day.  *
