 Q-Chem 5.1, Q-Chem, Inc., Pleasanton, CA (2018)
 Q-Chem 5.1.2 for Intel X86 EM64T Linux

User input:
--------------------------------------------------------------
$molecule
0 1
--
0 1
O     2.640573347     0.387661768     0.484745646
H     2.428921256     0.658206165     1.379755289
H     1.777509297     0.191546571     0.091553062
--
0 1
Si    -1.767964809    -0.039135671     0.002061319
H    -3.065822359    -0.302829015    -0.664159608
H    -1.746661484     1.372609497     0.434608175
H    -1.654783435    -0.944902976     1.162912100
N    -0.352790310    -0.294647841    -0.987894859
H    -0.237396824     0.312808051    -1.786743870
H    -0.163691070    -1.244067919    -1.276275416
$end

$rem
BASIS = aug-cc-pVTZ
JOB_TYPE  =  BSSE
METHOD  =  MP2
SCF_CONVERGENCE  =  7
SCF_MAX_CYCLES  =  200
$end

--------------------------------------------------------------

             Standard Nuclear Orientation (Angstroms)
    I     Atom           X                Y                Z
 ----------------------------------------------------------------
    1      O       2.9611800720     0.1765255150    -0.0024549339
    2      H       2.9093809226     1.1335595792     0.0184205905
    3      H       2.0349273383    -0.1061166433     0.0080530017
    4      Si     -1.4912505428     0.3384111152    -0.0005683479
    5      H      -2.8914841674    -0.1471112433    -0.0384175117
    6      H      -1.2579925987     1.1759612409    -1.1941660825
    7      H      -1.3110122739     1.1257342894     1.2357307081
    8      N      -0.2670980630    -0.9063648138     0.0009008542
    9      H      -0.2026312360    -1.4857541743    -0.8241022106
   10      H      -0.2234345195    -1.5016790853     0.8157718661
 ----------------------------------------------------------------

    8    -422.4153869568      6.75E-08 Convergence criterion met
 Total energy in the final basis set = -422.41538696
        MP2         total energy =                  -423.04646506 au

                    Orbital Energies (a.u.)
 --------------------------------------------------------------

 Alpha MOs
 -- Occupied --
-68.791 -20.547 -15.554  -6.137  -4.244  -4.244  -4.243  -1.331
 -1.151  -0.733  -0.694  -0.668  -0.569  -0.564  -0.505  -0.491
 -0.488  -0.422

          Ground-State Mulliken Net Atomic Charges

     Atom                 Charge (a.u.)
  ----------------------------------------
      1 O                    -0.508262
      2 H                     0.191228
      3 H                     0.330758
      4 Si                    1.044720
      5 H                    -0.346993
      6 H                    -0.272871
      7 H                    -0.274444
      8 N                    -0.392796
      9 H                     0.114655
     10 H                     0.114005
  ----------------------------------------
  Sum of atomic charges =    -0.000000

                    Cartesian Multipole Moments
 -----------------------------------------------------------------
    Charge (ESU x 10^10)
                -0.0000
    Dipole Moment (Debye)
         X      -2.4477      Y      -0.1866      Z       0.0292
       Tot       2.4550
    Quadrupole Moments (Debye-Ang)
        XX     -39.8131     XY       3.8309     YY     -24.0143
        XZ       0.0968     YZ       0.0517     ZZ     -28.2755

 Total job time:  283.23s(wall), 586.85s(cpu)
        *  Thank you very much for using Q-Chem.  Have a nice day.  *
