 Q-Chem 5.1, Q-Chem, Inc., Pleasanton, CA (2018)
 Q-Chem 5.1.2 for Intel X86 EM64T Linux

User input:
--------------------------------------------------------------
$molecule
0 1
--
0 1
O     2.640573347     0.387661768     0.484745646
H     2.428921256     0.658206165     1.379755289
H     1.777509297     0.191546571     0.091553062
--
0 1
Si    -1.461083595     0.001928905     0.069248655
H    -2.758941144    -0.261764439    -0.596972271
H    -1.439780269     1.413674073     0.501795512
H    -1.347902220    -0.903838400     1.230099437
N    -0.045909095    -0.253583265    -0.920707522
H     0.069484391     0.353872627    -1.719556533
H     0.143190145    -1.203003343    -1.209088079
$end

$rem
BASIS = aug-cc-pVTZ
JOB_TYPE  =  BSSE
METHOD  =  MP2
SCF_CONVERGENCE  =  7
SCF_MAX_CYCLES  =  200
$end

--------------------------------------------------------------

             Standard Nuclear Orientation (Angstroms)
    I     Atom           X                Y                Z
 ----------------------------------------------------------------
    1      O       2.7303014573     0.2004480285    -0.0023956963
    2      H       2.6641371666     1.1565962248     0.0184861788
    3      H       1.8083971833    -0.0960708952     0.0081005155
    4      Si     -1.4085123956     0.3238737072    -0.0005918908
    5      H      -2.8012971829    -0.1826194545    -0.0384591967
    6      H      -1.1878449971     1.1648407735    -1.1941811531
    7      H      -1.2401296395     1.1138054649     1.2357147210
    8      N      -0.1658064680    -0.9023800897     0.0008811509
    9      H      -0.0926382950    -1.4807300260    -0.8241254124
   10      H      -0.1132170785    -1.4969775890     0.8157483319
 ----------------------------------------------------------------

    8    -422.4156038391      9.79E-08 Convergence criterion met
 Total energy in the final basis set = -422.41560384
        MP2         total energy =                  -423.04805085 au

                    Orbital Energies (a.u.)
 --------------------------------------------------------------

 Alpha MOs
 -- Occupied --
-68.793 -20.539 -15.557  -6.139  -4.246  -4.246  -4.246  -1.324
 -1.155  -0.736  -0.689  -0.671  -0.571  -0.561  -0.506  -0.490
 -0.483  -0.425

          Ground-State Mulliken Net Atomic Charges

     Atom                 Charge (a.u.)
  ----------------------------------------
      1 O                    -0.513438
      2 H                     0.183671
      3 H                     0.338228
      4 Si                    1.051682
      5 H                    -0.372955
      6 H                    -0.276779
      7 H                    -0.278004
      8 N                    -0.302959
      9 H                     0.085183
     10 H                     0.085370
  ----------------------------------------
  Sum of atomic charges =    -0.000000

                    Cartesian Multipole Moments
 -----------------------------------------------------------------
    Charge (ESU x 10^10)
                -0.0000
    Dipole Moment (Debye)
         X      -2.6052      Y      -0.2891      Z       0.0285
       Tot       2.6213
    Quadrupole Moments (Debye-Ang)
        XX     -39.5372     XY       3.1442     YY     -23.8925
        XZ       0.0830     YZ       0.0518     ZZ     -28.2180

 Total job time:  293.60s(wall), 615.50s(cpu)
        *  Thank you very much for using Q-Chem.  Have a nice day.  *
