 Q-Chem 5.1, Q-Chem, Inc., Pleasanton, CA (2018)
 Q-Chem 5.1.2 for Intel X86 EM64T Linux

User input:
--------------------------------------------------------------
$molecule
0 1
--
0 1
O     2.727262800     0.140250979     0.206246615
H     2.747771752     1.047748175    -0.107062323
H     2.825602485    -0.377966203    -0.596211209
--
0 1
Si    -0.532202421    -0.026080538     0.180210885
H    -0.111110769    -0.356743508     1.560932625
H    -0.070943638     1.341710184    -0.140409081
H     0.048893140    -1.020150646    -0.746582261
N    -2.247517534    -0.042272353    -0.102907895
H    -2.810911831     0.653076433     0.360583178
H    -2.723173780    -0.930118256    -0.067722286
$end

$rem
BASIS = aug-cc-pVTZ
JOB_TYPE  =  BSSE
METHOD  =  MP2
SCF_CONVERGENCE  =  7
SCF_MAX_CYCLES  =  200
$end

--------------------------------------------------------------

             Standard Nuclear Orientation (Angstroms)
    I     Atom           X                Y                Z
 ----------------------------------------------------------------
    1      O       2.7714451312    -0.0060878517     0.0646328047
    2      H       2.8334723054     0.7733638883    -0.4928094641
    3      H       2.8307798083    -0.7345122686    -0.5582922034
    4      Si     -0.4922745314     0.0012597900     0.0878176244
    5      H      -0.0673828085     0.0524538352     1.5055252444
    6      H       0.0332860854     1.1959456835    -0.6071067892
    7      H       0.0228893271    -1.2438205335    -0.5197794076
    8      N      -2.2103387023    -0.0027180084    -0.1785731356
    9      H      -2.7302410709     0.8243430832     0.0692544672
   10      H      -2.7301503413    -0.8176818755     0.1067109232
 ----------------------------------------------------------------

    8    -422.4112434763      5.10E-08 Convergence criterion met
 Total energy in the final basis set = -422.41124348
        MP2         total energy =                  -423.04221268 au

                    Orbital Energies (a.u.)
 --------------------------------------------------------------

 Alpha MOs
 -- Occupied --
-68.772 -20.570 -15.531  -6.118  -4.225  -4.225  -4.224  -1.356
 -1.130  -0.717  -0.714  -0.649  -0.590  -0.548  -0.511  -0.485
 -0.471  -0.397

          Ground-State Mulliken Net Atomic Charges

     Atom                 Charge (a.u.)
  ----------------------------------------
      1 O                    -0.482567
      2 H                     0.229545
      3 H                     0.229133
      4 Si                    1.131677
      5 H                    -0.271825
      6 H                    -0.263030
      7 H                    -0.257948
      8 N                    -0.558109
      9 H                     0.121708
     10 H                     0.121416
  ----------------------------------------
  Sum of atomic charges =    -0.000000

                    Cartesian Multipole Moments
 -----------------------------------------------------------------
    Charge (ESU x 10^10)
                -0.0000
    Dipole Moment (Debye)
         X      -0.3405      Y       0.0979      Z      -0.9326
       Tot       0.9976
    Quadrupole Moments (Debye-Ang)
        XX     -25.1370     XY       0.1790     YY     -25.2952
        XZ      -8.3967     YZ       0.0035     ZZ     -30.4424

 Total job time:  285.04s(wall), 584.63s(cpu)
        *  Thank you very much for using Q-Chem.  Have a nice day.  *
