 Q-Chem 5.1, Q-Chem, Inc., Pleasanton, CA (2018)
 Q-Chem 5.1.2 for Intel X86 EM64T Linux

User input:
--------------------------------------------------------------
$molecule
0 1
--
0 1
O     2.727262800     0.140250979     0.206246615
H     2.747771752     1.047748175    -0.107062323
H     2.825602485    -0.377966203    -0.596211209
--
0 1
Si    -0.122145418    -0.005064739     0.185159137
H     0.298946234    -0.335727710     1.565880878
H     0.339113364     1.362725983    -0.135460828
H     0.458950142    -0.999134847    -0.741634009
N    -1.837460532    -0.021256555    -0.097959642
H    -2.400854829     0.674092232     0.365531431
H    -2.313116777    -0.909102457    -0.062774033
$end

$rem
BASIS = aug-cc-pVTZ
JOB_TYPE  =  BSSE
METHOD  =  MP2
SCF_CONVERGENCE  =  7
SCF_MAX_CYCLES  =  200
$end

--------------------------------------------------------------

             Standard Nuclear Orientation (Angstroms)
    I     Atom           X                Y                Z
 ----------------------------------------------------------------
    1      O       2.4750348543    -0.0061485828     0.0596173628
    2      H       2.5358141285     0.7733763157    -0.4978600636
    3      H       2.5327711578    -0.7344899487    -0.5635549044
    4      Si     -0.3780001071     0.0011938285     0.0883598465
    5      H       0.0503228683     0.0521276997     1.5050439592
    6      H       0.1460319563     1.1959139316    -0.6076592315
    7      H       0.1355352146    -1.2438636168    -0.5206610038
    8      N      -2.0967035039    -0.0025268013    -0.1738788788
    9      H      -2.6159000190     0.8245643384     0.0753243908
   10      H      -2.6159281145    -0.8174660479     0.1125422522
 ----------------------------------------------------------------

    8    -422.4079348794      5.85E-08 Convergence criterion met
 Total energy in the final basis set = -422.40793488
        MP2         total energy =                  -423.04112843 au

                    Orbital Energies (a.u.)
 --------------------------------------------------------------

 Alpha MOs
 -- Occupied --
-68.770 -20.573 -15.528  -6.116  -4.222  -4.222  -4.222  -1.361
 -1.127  -0.722  -0.714  -0.646  -0.596  -0.555  -0.508  -0.479
 -0.470  -0.394

          Ground-State Mulliken Net Atomic Charges

     Atom                 Charge (a.u.)
  ----------------------------------------
      1 O                    -0.498172
      2 H                     0.229250
      3 H                     0.229137
      4 Si                    1.203545
      5 H                    -0.265837
      6 H                    -0.266251
      7 H                    -0.260611
      8 N                    -0.608819
      9 H                     0.118921
     10 H                     0.118836
  ----------------------------------------
  Sum of atomic charges =     0.000000

                    Cartesian Multipole Moments
 -----------------------------------------------------------------
    Charge (ESU x 10^10)
                 0.0000
    Dipole Moment (Debye)
         X      -0.1474      Y       0.0959      Z      -0.8855
       Tot       0.9028
    Quadrupole Moments (Debye-Ang)
        XX     -25.3780     XY       0.1571     YY     -25.4140
        XZ      -7.7057     YZ       0.0037     ZZ     -30.4601

 Total job time:  297.07s(wall), 609.76s(cpu)
        *  Thank you very much for using Q-Chem.  Have a nice day.  *
