 Q-Chem 5.1, Q-Chem, Inc., Pleasanton, CA (2018)
 Q-Chem 5.1.2 for Intel X86 EM64T Linux

User input:
--------------------------------------------------------------
$molecule
0 1
--
0 1
O     2.640573347     0.387661768     0.484745646
H     2.428921256     0.658206165     1.379755289
H     1.777509297     0.191546571     0.091553062
--
0 1
Si    -1.254283262     0.029601397     0.114524687
H    -2.552140812    -0.234091947    -0.551696240
H    -1.232979936     1.441346565     0.547071543
H    -1.141101888    -0.876165908     1.275375469
N     0.160891238    -0.225910773    -0.875431491
H     0.276284723     0.381545119    -1.674280501
H     0.349990477    -1.175330851    -1.163812048
$end

$rem
BASIS = aug-cc-pVTZ
JOB_TYPE  =  BSSE
METHOD  =  MP2
SCF_CONVERGENCE  =  7
SCF_MAX_CYCLES  =  200
$end

--------------------------------------------------------------

             Standard Nuclear Orientation (Angstroms)
    I     Atom           X                Y                Z
 ----------------------------------------------------------------
    1      O       2.5741568687     0.2192581297    -0.0023495832
    2      H       2.4958804733     1.1744908822     0.0185390255
    3      H       1.6560842869    -0.0889202992     0.0081348570
    4      Si     -1.3535094441     0.3120649299    -0.0006102000
    5      H      -2.7397632439    -0.2120379335    -0.0384957442
    6      H      -1.1435051429     1.1557703746    -1.1941906748
    7      H      -1.1951635466     1.1040574103     1.2357042664
    8      N      -0.0953630903    -0.8983416719     0.0008661023
    9      H      -0.0148630066    -1.4757114036    -0.8241441930
   10      H      -0.0352509204    -1.4922313836     0.8157292133
 ----------------------------------------------------------------

    9    -422.4142121884      3.15E-08 Convergence criterion met
 Total energy in the final basis set = -422.41421219
        MP2         total energy =                  -423.04806878 au

                    Orbital Energies (a.u.)
 --------------------------------------------------------------

 Alpha MOs
 -- Occupied --
-68.795 -20.531 -15.559  -6.141  -4.248  -4.248  -4.247  -1.319
 -1.159  -0.738  -0.686  -0.674  -0.574  -0.557  -0.506  -0.491
 -0.477  -0.427

          Ground-State Mulliken Net Atomic Charges

     Atom                 Charge (a.u.)
  ----------------------------------------
      1 O                    -0.525167
      2 H                     0.177488
      3 H                     0.319366
      4 Si                    1.042326
      5 H                    -0.385641
      6 H                    -0.279032
      7 H                    -0.279724
      8 N                    -0.174028
      9 H                     0.051737
     10 H                     0.052675
  ----------------------------------------
  Sum of atomic charges =    -0.000000

                    Cartesian Multipole Moments
 -----------------------------------------------------------------
    Charge (ESU x 10^10)
                -0.0000
    Dipole Moment (Debye)
         X      -2.7426      Y      -0.3895      Z       0.0279
       Tot       2.7703
    Quadrupole Moments (Debye-Ang)
        XX     -39.4227     XY       2.6010     YY     -23.7995
        XZ       0.0737     YZ       0.0516     ZZ     -28.1633

 Total job time:  314.00s(wall), 657.97s(cpu)
        *  Thank you very much for using Q-Chem.  Have a nice day.  *
