 Q-Chem 5.1, Q-Chem, Inc., Pleasanton, CA (2018)
 Q-Chem 5.1.2 for Intel X86 EM64T Linux

User input:
--------------------------------------------------------------
$molecule
0 1
--
0 1
Si     2.701607000     0.125690888    -0.270400178
H     3.881940247    -0.764955877    -0.394351651
H     3.074781685     1.254572160     0.606696963
H     2.345683281     0.606987292    -1.620593772
N     1.274958878    -0.611037074     0.407064268
H     1.327705539    -0.932294968     1.362965471
H     0.821958737    -1.325136373    -0.145472211
--
0 1
Si    -2.069379774    -0.074728014    -0.275990742
H    -2.113404354     0.623830789    -1.588279328
H    -3.459134238    -0.133403456     0.228134991
H    -1.566757632    -1.444892443    -0.532359478
N    -1.058252948     0.619251357     0.939244627
H    -1.283606935     1.534991681     1.292639672
H    -0.059161329     0.520732990     0.802603827
$end

$rem
BASIS = aug-cc-pVTZ
JOB_TYPE  =  BSSE
METHOD  =  MP2
SCF_CONVERGENCE  =  8
SCF_MAX_CYCLES  =  200
$end

--------------------------------------------------------------

             Standard Nuclear Orientation (Angstroms)
    I     Atom           X                Y                Z
 ----------------------------------------------------------------
    1      Si     -2.4504249359    -0.1227956633     0.2535735272
    2      H      -3.6502309070    -0.6363348334    -0.4525039148
    3      H      -2.7768677945     1.2147643681     0.7895771551
    4      H      -2.1250197055    -1.0602270780     1.3475042574
    5      N      -1.0186355488     0.0435736267    -0.7258913471
    6      H      -1.0495320975     0.7101616419    -1.4838107199
    7      H      -0.5952593662    -0.8080325702    -1.0664247385
    8      Si      2.3138263463    -0.3927963994     0.0760260376
    9      H       2.3326630953    -1.1776411752     1.3392313861
   10      H       3.7163199140    -0.0345413081    -0.2300264329
   11      H       1.7785548076    -1.2848739770    -0.9791452680
   12      N       1.3515521034     1.0406364738     0.0670646135
   13      H       1.6040868304     1.7979868068     0.6809860280
   14      H       0.3472495945     0.9075562989     0.0520054744
 ----------------------------------------------------------------

   10    -692.6905519575      7.83E-09 Convergence criterion met
 Total energy in the final basis set = -692.69055196
        MP2         total energy =                  -693.42080514 au

                    Orbital Energies (a.u.)
 --------------------------------------------------------------

 Alpha MOs
 -- Occupied --
-68.790 -68.769 -15.550 -15.509  -6.136  -6.115  -4.243  -4.243
 -4.243  -4.221  -4.221  -4.221  -1.160  -1.111  -0.734  -0.710
 -0.669  -0.648  -0.568  -0.539  -0.499  -0.488  -0.480  -0.468
 -0.415  -0.384

          Ground-State Mulliken Net Atomic Charges

     Atom                 Charge (a.u.)
  ----------------------------------------
      1 Si                    1.022447
      2 H                    -0.387665
      3 H                    -0.300132
      4 H                    -0.311570
      5 N                     0.017775
      6 H                     0.036797
      7 H                     0.051128
      8 Si                    1.092352
      9 H                    -0.363020
     10 H                    -0.355539
     11 H                    -0.308456
     12 N                    -0.544594
     13 H                     0.099543
     14 H                     0.250936
  ----------------------------------------
  Sum of atomic charges =     0.000000

                    Cartesian Multipole Moments
 -----------------------------------------------------------------
    Charge (ESU x 10^10)
                -0.0000
    Dipole Moment (Debye)
         X      -1.5173      Y       0.1637      Z      -0.4007
       Tot       1.5778
    Quadrupole Moments (Debye-Ang)
        XX     -48.1516     XY      -0.0806     YY     -43.6358
        XZ       2.1314     YZ       1.8560     ZZ     -43.5706

 Total job time:  1646.57s(wall), 4545.52s(cpu)
        *  Thank you very much for using Q-Chem.  Have a nice day.  *
