 Q-Chem 5.1, Q-Chem, Inc., Pleasanton, CA (2018)
 Q-Chem 5.1.2 for Intel X86 EM64T Linux

User input:
--------------------------------------------------------------
$molecule
0 1
--
0 1
Si     2.701607000     0.125690888    -0.270400178
H     3.881940247    -0.764955877    -0.394351651
H     3.074781685     1.254572160     0.606696963
H     2.345683281     0.606987292    -1.620593772
N     1.274958878    -0.611037074     0.407064268
H     1.327705539    -0.932294968     1.362965471
H     0.821958737    -1.325136373    -0.145472211
--
0 1
Si    -2.852616330    -0.016507190    -0.243726720
H    -2.896640911     0.682051612    -1.556015306
H    -4.242370795    -0.075182632     0.260399012
H    -2.349994188    -1.386671619    -0.500095456
N    -1.841489505     0.677472181     0.971508649
H    -2.066843491     1.593212505     1.324903694
H    -0.842397886     0.578953813     0.834867848
$end

$rem
BASIS = aug-cc-pVTZ
JOB_TYPE  =  BSSE
METHOD  =  MP2
SCF_CONVERGENCE  =  8
SCF_MAX_CYCLES  =  200
$end

--------------------------------------------------------------

             Standard Nuclear Orientation (Angstroms)
    I     Atom           X                Y                Z
 ----------------------------------------------------------------
    1      Si     -2.8409446867    -0.1012345458     0.2749995969
    2      H      -4.0555020805    -0.6110276380    -0.4082013560
    3      H      -3.1451426510     1.2477302948     0.7952775265
    4      H      -2.5123249688    -1.0263019017     1.3784533258
    5      N      -1.4200023916     0.0341071032    -0.7248287191
    6      H      -1.4529588096     0.6898591889    -1.4920568671
    7      H      -1.0108116813    -0.8272606778    -1.0580733827
    8      Si      2.7026766723    -0.4078578863     0.0638765967
    9      H       2.7286900102    -1.1743192055     1.3381937663
   10      H       4.1051506296    -0.0704785921    -0.2651295507
   11      H       2.1437458849    -1.3089682959    -0.9711600759
   12      N       1.7568615933     1.0364041755     0.0459111098
   13      H       2.0259024035     1.7996545330     0.6453431344
   14      H       0.7509890538     0.9148273937     0.0455100339
 ----------------------------------------------------------------

    9    -692.7037287052      6.92E-09 Convergence criterion met
 Total energy in the final basis set = -692.70372871
        MP2         total energy =                  -693.42680027 au

                    Orbital Energies (a.u.)
 --------------------------------------------------------------

 Alpha MOs
 -- Occupied --
-68.787 -68.773 -15.548 -15.527  -6.133  -6.119  -4.239  -4.239
 -4.239  -4.225  -4.225  -4.225  -1.147  -1.126  -0.728  -0.713
 -0.663  -0.648  -0.561  -0.545  -0.500  -0.485  -0.483  -0.470
 -0.416  -0.395

          Ground-State Mulliken Net Atomic Charges

     Atom                 Charge (a.u.)
  ----------------------------------------
      1 Si                    0.977498
      2 H                    -0.336725
      3 H                    -0.283359
      4 H                    -0.275273
      5 N                    -0.306471
      6 H                     0.106716
      7 H                     0.111801
      8 Si                    1.100163
      9 H                    -0.357560
     10 H                    -0.314304
     11 H                    -0.308613
     12 N                    -0.515051
     13 H                     0.111561
     14 H                     0.289615
  ----------------------------------------
  Sum of atomic charges =    -0.000000

                    Cartesian Multipole Moments
 -----------------------------------------------------------------
    Charge (ESU x 10^10)
                -0.0000
    Dipole Moment (Debye)
         X      -1.1699      Y       0.2286      Z      -0.3123
       Tot       1.2323
    Quadrupole Moments (Debye-Ang)
        XX     -48.2115     XY       0.5551     YY     -43.2626
        XZ       3.0968     YZ       1.9797     ZZ     -43.7119

 Total job time:  1273.49s(wall), 3480.63s(cpu)
        *  Thank you very much for using Q-Chem.  Have a nice day.  *
