 Q-Chem 5.1, Q-Chem, Inc., Pleasanton, CA (2018)
 Q-Chem 5.1.2 for Intel X86 EM64T Linux

User input:
--------------------------------------------------------------
$molecule
0 1
--
0 1
Si    -1.603238946    -0.037666475    -0.093158434
H    -1.351489209     0.587977452    -1.416517664
H    -1.362259228    -1.490505278    -0.207462190
H    -0.720166038     0.598793029     0.904338035
N    -3.226075392     0.145065116     0.503430997
H    -3.972557755    -0.323149309     0.014787982
H    -3.532381265     1.064684992     0.778721563
--
0 1
Si     2.585442722     0.225226471     0.196862443
H     4.041241130     0.113760417    -0.076354499
H     2.323032698    -0.408619402     1.505364883
H     2.242757103     1.662076321     0.230918016
N     1.543579270    -0.532390627    -0.969384309
H     1.560743940    -1.538760611    -1.035834099
H     1.505112601    -0.137752185    -1.896614673
$end

$rem
BASIS = aug-cc-pVTZ
JOB_TYPE  =  BSSE
METHOD  =  MP2
SCF_CONVERGENCE  =  8
SCF_MAX_CYCLES  =  200
$end

--------------------------------------------------------------

             Standard Nuclear Orientation (Angstroms)
    I     Atom           X                Y                Z
 ----------------------------------------------------------------
    1      Si     -1.6506357619    -0.1314408815    -0.0297716874
    2      H      -1.3300044739    -0.8781118857    -1.2730600263
    3      H      -1.3958602288    -1.0142756608     1.1267616415
    4      H      -0.8271323960     1.0933791533     0.0096713778
    5      N      -3.3047489607     0.3871753618     0.1038495383
    6      H      -4.0207226793    -0.3142199084     0.2070918330
    7      H      -3.6306957879     1.1076578516    -0.5206282816
    8      Si      2.5143141602     0.4595071183     0.0176786432
    9      H       3.9835015544     0.2415123092    -0.0020151946
   10      H       2.1838990869     1.1887601279     1.2593767444
   11      H       2.1624806180     1.2616821351    -1.1722201374
   12      N       1.5421853782    -0.9803985984    -0.0174178602
   13      H       1.5684355988    -1.5886345243     0.7868524486
   14      H       1.5525462102    -1.5381142566    -0.8575495345
 ----------------------------------------------------------------

   10    -692.7011524198      7.33E-09 Convergence criterion met
 Total energy in the final basis set = -692.70115242
        MP2         total energy =                  -693.42536302 au

                    Orbital Energies (a.u.)
 --------------------------------------------------------------

 Alpha MOs
 -- Occupied --
-68.779 -68.769 -15.540 -15.527  -6.126  -6.115  -4.232  -4.232
 -4.232  -4.221  -4.221  -4.221  -1.139  -1.126  -0.722  -0.711
 -0.658  -0.646  -0.555  -0.544  -0.494  -0.481  -0.477  -0.467
 -0.406  -0.393

          Ground-State Mulliken Net Atomic Charges

     Atom                 Charge (a.u.)
  ----------------------------------------
      1 Si                    1.187135
      2 H                    -0.294613
      3 H                    -0.235911
      4 H                    -0.226003
      5 N                    -0.654273
      6 H                     0.114009
      7 H                     0.116306
      8 Si                    1.117715
      9 H                    -0.481856
     10 H                    -0.259028
     11 H                    -0.255743
     12 N                    -0.320912
     13 H                     0.094913
     14 H                     0.098262
  ----------------------------------------
  Sum of atomic charges =     0.000000

                    Cartesian Multipole Moments
 -----------------------------------------------------------------
    Charge (ESU x 10^10)
                 0.0000
    Dipole Moment (Debye)
         X      -0.0850      Y      -1.3577      Z      -0.8022
       Tot       1.5793
    Quadrupole Moments (Debye-Ang)
        XX     -40.9164     XY      -1.2578     YY     -41.7305
        XZ       3.0569     YZ      -1.7533     ZZ     -44.4788

 Total job time:  1299.21s(wall), 3617.49s(cpu)
        *  Thank you very much for using Q-Chem.  Have a nice day.  *
