 Q-Chem 5.1, Q-Chem, Inc., Pleasanton, CA (2018)
 Q-Chem 5.1.2 for Intel X86 EM64T Linux

User input:
--------------------------------------------------------------
$molecule
0 1
--
0 1
Si    -1.603238946    -0.037666475    -0.093158434
H    -1.351489209     0.587977452    -1.416517664
H    -1.362259228    -1.490505278    -0.207462190
H    -0.720166038     0.598793029     0.904338035
N    -3.226075392     0.145065116     0.503430997
H    -3.972557755    -0.323149309     0.014787982
H    -3.532381265     1.064684992     0.778721563
--
0 1
Si     2.731713318     0.223209066     0.187093622
H     4.187511726     0.111743012    -0.086123320
H     2.469303294    -0.410636808     1.495596063
H     2.389027699     1.660058915     0.221149196
N     1.689849866    -0.534408033    -0.979153130
H     1.707014536    -1.540778017    -1.045602919
H     1.651383197    -0.139769590    -1.906383494
$end

$rem
BASIS = aug-cc-pVTZ
JOB_TYPE  =  BSSE
METHOD  =  MP2
SCF_CONVERGENCE  =  8
SCF_MAX_CYCLES  =  200
$end

--------------------------------------------------------------

             Standard Nuclear Orientation (Angstroms)
    I     Atom           X                Y                Z
 ----------------------------------------------------------------
    1      Si     -1.7238167410    -0.1319501008    -0.0296647676
    2      H      -1.4026128867    -0.8783028503    -1.2729964057
    3      H      -1.4681418483    -1.0145781495     1.1268278773
    4      H      -0.9014224531     1.0936162784     0.0097351319
    5      N      -3.3783888186     0.3851611913     0.1041076710
    6      H      -4.0937166692    -0.3168860865     0.2073953663
    7      H      -3.7050425316     1.1053609161    -0.5203269599
    8      Si      2.5871958890     0.4608006411     0.0175057375
    9      H       4.0565789335     0.2441402970    -0.0023171537
   10      H       2.2562239336     1.1897265545     1.2592475900
   11      H       2.2345334383     1.2626815568    -1.1723458907
   12      N       1.6163719017    -0.9799863703    -0.0175396797
   13      H       1.6432424371    -1.5882155662     0.7867152331
   14      H       1.6271679928    -1.5376742614    -0.8576843064
 ----------------------------------------------------------------

    9    -692.7016092570      7.95E-09 Convergence criterion met
 Total energy in the final basis set = -692.70160926
        MP2         total energy =                  -693.42495306 au

                    Orbital Energies (a.u.)
 --------------------------------------------------------------

 Alpha MOs
 -- Occupied --
-68.779 -68.770 -15.539 -15.528  -6.125  -6.116  -4.232  -4.232
 -4.231  -4.222  -4.222  -4.222  -1.138  -1.127  -0.721  -0.712
 -0.657  -0.647  -0.554  -0.544  -0.494  -0.482  -0.476  -0.468
 -0.406  -0.394

          Ground-State Mulliken Net Atomic Charges

     Atom                 Charge (a.u.)
  ----------------------------------------
      1 Si                    1.135973
      2 H                    -0.290668
      3 H                    -0.232214
      4 H                    -0.225363
      5 N                    -0.620290
      6 H                     0.115032
      7 H                     0.117575
      8 Si                    1.071931
      9 H                    -0.432475
     10 H                    -0.259810
     11 H                    -0.256834
     12 N                    -0.317018
     13 H                     0.096131
     14 H                     0.098030
  ----------------------------------------
  Sum of atomic charges =     0.000000

                    Cartesian Multipole Moments
 -----------------------------------------------------------------
    Charge (ESU x 10^10)
                 0.0000
    Dipole Moment (Debye)
         X      -0.1333      Y      -1.3479      Z      -0.8031
       Tot       1.5746
    Quadrupole Moments (Debye-Ang)
        XX     -40.6629     XY      -1.3345     YY     -41.7331
        XZ       3.1114     YZ      -1.7537     ZZ     -44.4619

 Total job time:  1264.62s(wall), 3455.46s(cpu)
        *  Thank you very much for using Q-Chem.  Have a nice day.  *
