 Q-Chem 5.1, Q-Chem, Inc., Pleasanton, CA (2018)
 Q-Chem 5.1.2 for Intel X86 EM64T Linux

User input:
--------------------------------------------------------------
$molecule
0 1
--
0 1
Si     2.701607000     0.125690888    -0.270400178
H     3.881940247    -0.764955877    -0.394351651
H     3.074781685     1.254572160     0.606696963
H     2.345683281     0.606987292    -1.620593772
N     1.274958878    -0.611037074     0.407064268
H     1.327705539    -0.932294968     1.362965471
H     0.821958737    -1.325136373    -0.145472211
--
0 1
Si    -2.727565031    -0.025802708    -0.248877984
H    -2.771589611     0.672756094    -1.561166570
H    -4.117319496    -0.084478151     0.255247749
H    -2.224942889    -1.395967137    -0.505246720
N    -1.716438205     0.668176662     0.966357385
H    -1.941792192     1.583916987     1.319752430
H    -0.717346586     0.569658295     0.829716585
$end

$rem
BASIS = aug-cc-pVTZ
JOB_TYPE  =  BSSE
METHOD  =  MP2
SCF_CONVERGENCE  =  8
SCF_MAX_CYCLES  =  200
$end

--------------------------------------------------------------

             Standard Nuclear Orientation (Angstroms)
    I     Atom           X                Y                Z
 ----------------------------------------------------------------
    1      Si     -2.7785354417    -0.1041467430     0.2721279022
    2      H      -3.9912330675    -0.6144537799    -0.4139868099
    3      H      -3.0855691655     1.2433906761     0.7944351519
    4      H      -2.4503268835    -1.0307919231     1.3743794687
    5      N      -1.3561841030     0.0351660052    -0.7251482166
    6      H      -1.3888737007     0.6923040181    -1.4912010718
    7      H      -0.9451815068    -0.8249707938    -1.0593413493
    8      Si      2.6404748573    -0.4057830178     0.0655718713
    9      H       2.6655673128    -1.1745896341     1.3384939631
   10      H       4.0429766648    -0.0657164715    -0.2605361772
   11      H       2.0845491843    -1.3057788004    -0.9720498066
   12      N       1.6925527072     1.0371110932     0.0487787721
   13      H       1.9594958865     1.7996344779     0.6500709198
   14      H       0.6868632277     0.9140491929     0.0465249941
 ----------------------------------------------------------------

   10    -692.7034607702      7.49E-09 Convergence criterion met
 Total energy in the final basis set = -692.70346077
        MP2         total energy =                  -693.42719334 au

                    Orbital Energies (a.u.)
 --------------------------------------------------------------

 Alpha MOs
 -- Occupied --
-68.787 -68.772 -15.549 -15.525  -6.133  -6.118  -4.240  -4.240
 -4.239  -4.225  -4.225  -4.224  -1.148  -1.124  -0.729  -0.713
 -0.663  -0.647  -0.562  -0.544  -0.500  -0.485  -0.484  -0.470
 -0.416  -0.393

          Ground-State Mulliken Net Atomic Charges

     Atom                 Charge (a.u.)
  ----------------------------------------
      1 Si                    0.976495
      2 H                    -0.340371
      3 H                    -0.283799
      4 H                    -0.278400
      5 N                    -0.292758
      6 H                     0.103856
      7 H                     0.109801
      8 Si                    1.096612
      9 H                    -0.357919
     10 H                    -0.317297
     11 H                    -0.309626
     12 N                    -0.515660
     13 H                     0.113402
     14 H                     0.295666
  ----------------------------------------
  Sum of atomic charges =    -0.000000

                    Cartesian Multipole Moments
 -----------------------------------------------------------------
    Charge (ESU x 10^10)
                -0.0000
    Dipole Moment (Debye)
         X      -1.2143      Y       0.2236      Z      -0.3202
       Tot       1.2756
    Quadrupole Moments (Debye-Ang)
        XX     -48.1770     XY       0.4718     YY     -43.3004
        XZ       2.9566     YZ       1.9709     ZZ     -43.6937

 Total job time:  1329.19s(wall), 3699.14s(cpu)
        *  Thank you very much for using Q-Chem.  Have a nice day.  *
