 Q-Chem 5.1, Q-Chem, Inc., Pleasanton, CA (2018)
 Q-Chem 5.1.2 for Intel X86 EM64T Linux

User input:
--------------------------------------------------------------
$molecule
0 1
Si     2.701607000     0.125690888    -0.270400178
H     3.881940247    -0.764955877    -0.394351651
H     3.074781685     1.254572160     0.606696963
H     2.345683281     0.606987292    -1.620593772
N     1.274958878    -0.611037074     0.407064268
H     1.327705539    -0.932294968     1.362965471
H     0.821958737    -1.325136373    -0.145472211
Si    -5.021940330     0.144746558    -0.154365318
H    -5.065964911     0.843305361    -1.466653904
H    -6.411694795     0.086071116     0.349760415
H    -4.519318188    -1.225417871    -0.410734054
N    -4.010813504     0.838725929     1.060870051
H    -4.236167491     1.754466253     1.414265096
H    -3.011721886     0.740207561     0.924229251
$end

$rem
BASIS = aug-cc-pVTZ
JOB_TYPE  =  SP
METHOD  =  MP2
SCF_MAX_CYCLES  =  200
$end

--------------------------------------------------------------

    6    -692.7014291198      6.26e-06  Convergence criterion met
 Total energy in the final basis set =     -692.7014291198
        MP2         total energy =                  -693.42138292 au
 Total job time:  270.46s(wall), 1599.51s(cpu)
        *  Thank you very much for using Q-Chem.  Have a nice day.  *
 Q-Chem 5.1, Q-Chem, Inc., Pleasanton, CA (2018)
 Q-Chem 5.1.2 for Intel X86 EM64T Linux

User input:
--------------------------------------------------------------

$molecule
0 1
Si     2.701607000     0.125690888    -0.270400178
H     3.881940247    -0.764955877    -0.394351651
H     3.074781685     1.254572160     0.606696963
H     2.345683281     0.606987292    -1.620593772
N     1.274958878    -0.611037074     0.407064268
H     1.327705539    -0.932294968     1.362965471
H     0.821958737    -1.325136373    -0.145472211
@Si   -5.021940330     0.144746558    -0.154365318
@H    -5.065964911     0.843305361    -1.466653904
@H    -6.411694795     0.086071116     0.349760415
@H    -4.519318188    -1.225417871    -0.410734054
@N    -4.010813504     0.838725929     1.060870051
@H    -4.236167491     1.754466253     1.414265096
@H    -3.011721886     0.740207561     0.924229251
$end

$rem
BASIS = aug-cc-pVTZ
JOB_TYPE  =  SP
METHOD  =  MP2
SCF_MAX_CYCLES  =  200
$end

--------------------------------------------------------------

    6    -346.3503593876      4.48e-06  Convergence criterion met
 Total energy in the final basis set =     -346.3503593876
        MP2         total energy =                  -346.71038730 au
 Total job time:  153.59s(wall), 913.21s(cpu)
        *  Thank you very much for using Q-Chem.  Have a nice day.  *
 Q-Chem 5.1, Q-Chem, Inc., Pleasanton, CA (2018)
 Q-Chem 5.1.2 for Intel X86 EM64T Linux

User input:
--------------------------------------------------------------

$molecule
0 1
@Si     2.701607000     0.125690888    -0.270400178
@H      3.881940247    -0.764955877    -0.394351651
@H      3.074781685     1.254572160     0.606696963
@H      2.345683281     0.606987292    -1.620593772
@N      1.274958878    -0.611037074     0.407064268
@H      1.327705539    -0.932294968     1.362965471
@H      0.821958737    -1.325136373    -0.145472211
Si    -5.021940330     0.144746558    -0.154365318
H     -5.065964911     0.843305361    -1.466653904
H     -6.411694795     0.086071116     0.349760415
H     -4.519318188    -1.225417871    -0.410734054
N     -4.010813504     0.838725929     1.060870051
H     -4.236167491     1.754466253     1.414265096
H     -3.011721886     0.740207561     0.924229251
$end

$rem
BASIS = aug-cc-pVTZ
JOB_TYPE  =  SP
METHOD  =  MP2
SCF_MAX_CYCLES  =  200
$end

--------------------------------------------------------------

             Standard Nuclear Orientation (Angstroms)
    I     Atom           X                Y                Z
 ----------------------------------------------------------------
    1      GH      2.7016070000     0.1256908880    -0.2704001780
    2      GH      3.8819402470    -0.7649558770    -0.3943516510
    3      GH      3.0747816850     1.2545721600     0.6066969630
    4      GH      2.3456832810     0.6069872920    -1.6205937720
    5      GH      1.2749588780    -0.6110370740     0.4070642680
    6      GH      1.3277055390    -0.9322949680     1.3629654710
    7      GH      0.8219587370    -1.3251363730    -0.1454722110
    8      Si     -5.0219403300     0.1447465580    -0.1543653180
    9      H      -5.0659649110     0.8433053610    -1.4666539040
   10      H      -6.4116947950     0.0860711160     0.3497604150
   11      H      -4.5193181880    -1.2254178710    -0.4107340540
   12      N      -4.0108135040     0.8387259290     1.0608700510
   13      H      -4.2361674910     1.7544662530     1.4142650960
   14      H      -3.0117218860     0.7402075610     0.9242292510
 ----------------------------------------------------------------

    6    -346.3504516311      4.38e-06  Convergence criterion met
 Total energy in the final basis set =     -346.3504516311
        MP2         total energy =                  -346.71024141 au

                    Orbital Energies (a.u.)
 --------------------------------------------------------------

 Alpha MOs
 -- Occupied --
-68.778 -15.540  -6.124  -4.231  -4.231  -4.230  -1.138  -0.720
 -0.660  -0.554  -0.492  -0.474  -0.405

          Ground-State Mulliken Net Atomic Charges

     Atom                 Charge (a.u.)
  ----------------------------------------
      1 GH                    0.000026
      2 GH                   -0.000008
      3 GH                    0.000050
      4 GH                    0.000065
      5 GH                    0.001127
      6 GH                   -0.000172
      7 GH                   -0.000137
      8 Si                    1.113399
      9 H                    -0.342781
     10 H                    -0.299569
     11 H                    -0.296426
     12 N                    -0.458990
     13 H                     0.108308
     14 H                     0.175108
  ----------------------------------------
  Sum of atomic charges =    -0.000001

                    Cartesian Multipole Moments
 -----------------------------------------------------------------
    Charge (ESU x 10^10)
                -0.0000
    Dipole Moment (Debye)
         X       0.7970      Y       1.0391      Z       0.0043
       Tot       1.3095
    Quadrupole Moments (Debye-Ang)
        XX     -27.9124     XY      -4.1462     YY     -20.2984
        XZ       0.2321     YZ       2.0366     ZZ     -24.3076

 Total job time:  150.99s(wall), 899.59s(cpu)
        *  Thank you very much for using Q-Chem.  Have a nice day.  *
