 Q-Chem 5.1, Q-Chem, Inc., Pleasanton, CA (2018)
 Q-Chem 5.1.2 for Intel X86 EM64T Linux

User input:
--------------------------------------------------------------
$molecule
0 1
--
0 1
Si    -1.603238946    -0.037666475    -0.093158434
H    -1.351489209     0.587977452    -1.416517664
H    -1.362259228    -1.490505278    -0.207462190
H    -0.720166038     0.598793029     0.904338035
N    -3.226075392     0.145065116     0.503430997
H    -3.972557755    -0.323149309     0.014787982
H    -3.532381265     1.064684992     0.778721563
--
0 1
Si     2.438710931     0.227250238     0.206662064
H     3.894509339     0.115784184    -0.066554877
H     2.176300907    -0.406595636     1.515164505
H     2.096025312     1.664100087     0.240717638
N     1.396847479    -0.530366861    -0.959584688
H     1.414012149    -1.536736845    -1.026034477
H     1.358380810    -0.135728418    -1.886815052
$end

$rem
BASIS = aug-cc-pVTZ
JOB_TYPE  =  BSSE
METHOD  =  MP2
SCF_CONVERGENCE  =  7
SCF_MAX_CYCLES  =  200
$end

--------------------------------------------------------------

             Standard Nuclear Orientation (Angstroms)
    I     Atom           X                Y                Z
 ----------------------------------------------------------------
    1      Si     -1.5772364584    -0.1309173230    -0.0298818836
    2      H      -1.2572367679    -0.8779401267    -1.2731216167
    3      H      -1.3234568586    -1.0139791124     1.1266971026
    4      H      -0.7525079504     1.0930765424     0.0096095357
    5      N      -3.2308409807     0.3893620869     0.1035697307
    6      H      -3.9475280942    -0.3113117150     0.2067611395
    7      H      -3.5560052691     1.1101560977    -0.5209565534
    8      Si      2.4412448322     0.4581162615     0.0178628275
    9      H       3.9102145557     0.2386465204    -0.0016862654
   10      H       2.1114440305     1.1877308604     1.2595118194
   11      H       2.0903294835     1.2606149272    -1.1720888579
   12      N       1.4676746983    -0.9808139028    -0.0172909014
   13      H       1.4932381301    -1.5890562203     0.7869966958
   14      H       1.4775554839    -1.5385602013    -0.8574080182
 ----------------------------------------------------------------

    8    -692.7002836145      8.16E-08 Convergence criterion met
 Total energy in the final basis set = -692.70028361
        MP2         total energy =                  -693.42557574 au

                    Orbital Energies (a.u.)
 --------------------------------------------------------------

 Alpha MOs
 -- Occupied --
-68.780 -68.768 -15.540 -15.526  -6.126  -6.114  -4.233  -4.232
 -4.232  -4.220  -4.220  -4.220  -1.140  -1.125  -0.723  -0.710
 -0.659  -0.645  -0.556  -0.544  -0.494  -0.480  -0.477  -0.466
 -0.407  -0.392

          Ground-State Mulliken Net Atomic Charges

     Atom                 Charge (a.u.)
  ----------------------------------------
      1 Si                    1.244382
      2 H                    -0.299907
      3 H                    -0.241157
      4 H                    -0.225950
      5 N                    -0.690858
      6 H                     0.112532
      7 H                     0.115050
      8 Si                    1.169198
      9 H                    -0.537234
     10 H                    -0.257679
     11 H                    -0.254093
     12 N                    -0.325930
     13 H                     0.093214
     14 H                     0.098433
  ----------------------------------------
  Sum of atomic charges =     0.000000

                    Cartesian Multipole Moments
 -----------------------------------------------------------------
    Charge (ESU x 10^10)
                 0.0000
    Dipole Moment (Debye)
         X      -0.0245      Y      -1.3706      Z      -0.8013
       Tot       1.5879
    Quadrupole Moments (Debye-Ang)
        XX     -41.1888     XY      -1.1813     YY     -41.7226
        XZ       3.0026     YZ      -1.7523     ZZ     -44.4998

 Total job time:  1249.80s(wall), 3531.13s(cpu)
        *  Thank you very much for using Q-Chem.  Have a nice day.  *
