 Q-Chem 5.1, Q-Chem, Inc., Pleasanton, CA (2018)
 Q-Chem 5.1.2 for Intel X86 EM64T Linux

User input:
--------------------------------------------------------------
$molecule
0 1
--
0 1
Si    -1.603238946    -0.037666475    -0.093158434
H    -1.351489209     0.587977452    -1.416517664
H    -1.362259228    -1.490505278    -0.207462190
H    -0.720166038     0.598793029     0.904338035
N    -3.226075392     0.145065116     0.503430997
H    -3.972557755    -0.323149309     0.014787982
H    -3.532381265     1.064684992     0.778721563
--
0 1
Si     2.291440430     0.229281434     0.216497664
H     3.747238838     0.117815380    -0.056719278
H     2.029030406    -0.404564439     1.525000105
H     1.948754811     1.666131283     0.250553238
N     1.249576978    -0.528335664    -0.949749088
H     1.266741648    -1.534705649    -1.016198877
H     1.211110309    -0.133697222    -1.876979452
$end

$rem
BASIS = aug-cc-pVTZ
JOB_TYPE  =  BSSE
METHOD  =  MP2
SCF_CONVERGENCE  =  8
SCF_MAX_CYCLES  =  200
$end

--------------------------------------------------------------

             Standard Nuclear Orientation (Angstroms)
    I     Atom           X                Y                Z
 ----------------------------------------------------------------
    1      Si     -1.5035819087    -0.1303801081    -0.0299952822
    2      H      -1.1842818242    -0.8777932446    -1.2731802905
    3      H      -1.2509094513    -1.0136920395     1.1266350917
    4      H      -0.6774948105     1.0926954851     0.0095504636
    5      N      -3.1566201324     0.3917444965     0.1032655232
    6      H      -3.8740982384    -0.3081277527     0.2063997294
    7      H      -3.4809147407     1.1128829699    -0.5213153035
    8      Si      2.3679554678     0.4566161559     0.0180594329
    9      H       3.8366819057     0.2355098328    -0.0013268388
   10      H       2.0388350582     1.1866319716     1.2596531323
   11      H       2.0180611495     1.2594722833    -1.1719517893
   12      N       1.3927869717    -0.9812296986    -0.0171585921
   13      H       1.4175870943    -1.5894778760     0.7871484734
   14      H       1.4021361551    -1.5390098840    -0.8572592944
 ----------------------------------------------------------------

   10    -692.6987545863      5.80E-09 Convergence criterion met
 Total energy in the final basis set = -692.69875459
        MP2         total energy =                  -693.42540083 au

                    Orbital Energies (a.u.)
 --------------------------------------------------------------

 Alpha MOs
 -- Occupied --
-68.780 -68.767 -15.541 -15.525  -6.126  -6.113  -4.233  -4.233
 -4.233  -4.219  -4.219  -4.219  -1.141  -1.124  -0.724  -0.710
 -0.660  -0.644  -0.557  -0.545  -0.494  -0.478  -0.477  -0.465
 -0.407  -0.390

          Ground-State Mulliken Net Atomic Charges

     Atom                 Charge (a.u.)
  ----------------------------------------
      1 Si                    1.300260
      2 H                    -0.306063
      3 H                    -0.247401
      4 H                    -0.225015
      5 N                    -0.725851
      6 H                     0.110574
      7 H                     0.113736
      8 Si                    1.213896
      9 H                    -0.588630
     10 H                    -0.255131
     11 H                    -0.251377
     12 N                    -0.327676
     13 H                     0.090735
     14 H                     0.097943
  ----------------------------------------
  Sum of atomic charges =     0.000000

                    Cartesian Multipole Moments
 -----------------------------------------------------------------
    Charge (ESU x 10^10)
                 0.0000
    Dipole Moment (Debye)
         X       0.0523      Y      -1.3874      Z      -0.8004
       Tot       1.6026
    Quadrupole Moments (Debye-Ang)
        XX     -41.4845     XY      -1.1065     YY     -41.7065
        XZ       2.9487     YZ      -1.7504     ZZ     -44.5270

 Total job time:  1371.06s(wall), 3787.13s(cpu)
        *  Thank you very much for using Q-Chem.  Have a nice day.  *
