 Q-Chem 5.1, Q-Chem, Inc., Pleasanton, CA (2018)
 Q-Chem 5.1.2 for Intel X86 EM64T Linux

User input:
--------------------------------------------------------------
$molecule
0 1
Si     1.924810978     0.221250999     0.126279543
H     1.412655312     0.307098559     1.517792385
H     1.133853934    -0.817922695    -0.568974842
H     1.726171862     1.539629336    -0.510559482
N     3.598001176    -0.193061537    -0.046238154
H     3.898337608    -1.114121400     0.229631138
H     4.290301474     0.485203856     0.228290528
Si    -2.126252677    -0.361684052    -0.206855633
H    -1.893444655    -0.804388720    -1.605135628
H    -1.701584127    -1.458094810     0.688429460
H    -1.298317542     0.842752968     0.020871680
N    -3.760239821     0.046229544     0.200083141
H    -4.442922378    -0.693482455     0.241076871
H    -4.171268191     0.861376391    -0.225991379
$end

$rem
BASIS = aug-cc-pVTZ
JOB_TYPE  =  SP
METHOD  =  MP2
SCF_MAX_CYCLES  =  200
$end

--------------------------------------------------------------

    6    -692.7008158838      6.09e-06  Convergence criterion met
 Total energy in the final basis set =     -692.7008158838
        MP2         total energy =                  -693.42316227 au
 Total job time:  365.61s(wall), 2168.28s(cpu)
        *  Thank you very much for using Q-Chem.  Have a nice day.  *
 Q-Chem 5.1, Q-Chem, Inc., Pleasanton, CA (2018)
 Q-Chem 5.1.2 for Intel X86 EM64T Linux

User input:
--------------------------------------------------------------

$molecule
0 1
Si     1.924810978     0.221250999     0.126279543
H     1.412655312     0.307098559     1.517792385
H     1.133853934    -0.817922695    -0.568974842
H     1.726171862     1.539629336    -0.510559482
N     3.598001176    -0.193061537    -0.046238154
H     3.898337608    -1.114121400     0.229631138
H     4.290301474     0.485203856     0.228290528
@Si   -2.126252677    -0.361684052    -0.206855633
@H    -1.893444655    -0.804388720    -1.605135628
@H    -1.701584127    -1.458094810     0.688429460
@H    -1.298317542     0.842752968     0.020871680
@N    -3.760239821     0.046229544     0.200083141
@H    -4.442922378    -0.693482455     0.241076871
@H    -4.171268191     0.861376391    -0.225991379
$end

$rem
BASIS = aug-cc-pVTZ
JOB_TYPE  =  SP
METHOD  =  MP2
SCF_MAX_CYCLES  =  200
$end

--------------------------------------------------------------

    6    -346.3508496154      4.33e-06  Convergence criterion met
 Total energy in the final basis set =     -346.3508496154
        MP2         total energy =                  -346.71072723 au
 Total job time:  207.80s(wall), 1239.51s(cpu)
        *  Thank you very much for using Q-Chem.  Have a nice day.  *
 Q-Chem 5.1, Q-Chem, Inc., Pleasanton, CA (2018)
 Q-Chem 5.1.2 for Intel X86 EM64T Linux

User input:
--------------------------------------------------------------

$molecule
0 1
@Si     1.924810978     0.221250999     0.126279543
@H      1.412655312     0.307098559     1.517792385
@H      1.133853934    -0.817922695    -0.568974842
@H      1.726171862     1.539629336    -0.510559482
@N      3.598001176    -0.193061537    -0.046238154
@H      3.898337608    -1.114121400     0.229631138
@H      4.290301474     0.485203856     0.228290528
Si    -2.126252677    -0.361684052    -0.206855633
H     -1.893444655    -0.804388720    -1.605135628
H     -1.701584127    -1.458094810     0.688429460
H     -1.298317542     0.842752968     0.020871680
N     -3.760239821     0.046229544     0.200083141
H     -4.442922378    -0.693482455     0.241076871
H     -4.171268191     0.861376391    -0.225991379
$end

$rem
BASIS = aug-cc-pVTZ
JOB_TYPE  =  SP
METHOD  =  MP2
SCF_MAX_CYCLES  =  200
$end

--------------------------------------------------------------

             Standard Nuclear Orientation (Angstroms)
    I     Atom           X                Y                Z
 ----------------------------------------------------------------
    1      GH      1.9248109780     0.2212509990     0.1262795430
    2      GH      1.4126553120     0.3070985590     1.5177923850
    3      GH      1.1338539340    -0.8179226950    -0.5689748420
    4      GH      1.7261718620     1.5396293360    -0.5105594820
    5      GH      3.5980011760    -0.1930615370    -0.0462381540
    6      GH      3.8983376080    -1.1141214000     0.2296311380
    7      GH      4.2903014740     0.4852038560     0.2282905280
    8      Si     -2.1262526770    -0.3616840520    -0.2068556330
    9      H      -1.8934446550    -0.8043887200    -1.6051356280
   10      H      -1.7015841270    -1.4580948100     0.6884294600
   11      H      -1.2983175420     0.8427529680     0.0208716800
   12      N      -3.7602398210     0.0462295440     0.2000831410
   13      H      -4.4429223780    -0.6934824550     0.2410768710
   14      H      -4.1712681910     0.8613763910    -0.2259913790
 ----------------------------------------------------------------

    6    -346.3508443023      4.34e-06  Convergence criterion met
 Total energy in the final basis set =     -346.3508443023
        MP2         total energy =                  -346.71073128 au

                    Orbital Energies (a.u.)
 --------------------------------------------------------------

 Alpha MOs
 -- Occupied --
-68.778 -15.538  -6.125  -4.231  -4.231  -4.231  -1.137  -0.721
 -0.657  -0.554  -0.492  -0.475  -0.404

          Ground-State Mulliken Net Atomic Charges

     Atom                 Charge (a.u.)
  ----------------------------------------
      1 GH                    0.034622
      2 GH                   -0.002576
      3 GH                    0.006969
      4 GH                    0.000751
      5 GH                   -0.003931
      6 GH                   -0.000330
      7 GH                    0.000067
      8 Si                    1.097521
      9 H                    -0.308824
     10 H                    -0.259993
     11 H                    -0.229897
     12 N                    -0.581279
     13 H                     0.115843
     14 H                     0.131055
  ----------------------------------------
  Sum of atomic charges =    -0.000002

                    Cartesian Multipole Moments
 -----------------------------------------------------------------
    Charge (ESU x 10^10)
                -0.0000
    Dipole Moment (Debye)
         X      -1.0491      Y      -0.0346      Z      -0.6845
       Tot       1.2531
    Quadrupole Moments (Debye-Ang)
        XX     -14.4753     XY       0.4952     YY     -21.2029
        XZ       2.9437     YZ      -1.0991     ZZ     -24.2990

 Total job time:  208.56s(wall), 1244.12s(cpu)
        *  Thank you very much for using Q-Chem.  Have a nice day.  *
