 Q-Chem 5.1, Q-Chem, Inc., Pleasanton, CA (2018)
 Q-Chem 5.1.2 for Intel X86 EM64T Linux

User input:
--------------------------------------------------------------
$molecule
0 1
--
0 1
Si     2.701607000     0.125690888    -0.270400178
H     3.881940247    -0.764955877    -0.394351651
H     3.074781685     1.254572160     0.606696963
H     2.345683281     0.606987292    -1.620593772
N     1.274958878    -0.611037074     0.407064268
H     1.327705539    -0.932294968     1.362965471
H     0.821958737    -1.325136373    -0.145472211
--
0 1
Si    -2.341274293    -0.054517105    -0.264790536
H    -2.385298874     0.644041698    -1.577079122
H    -3.731028758    -0.113192547     0.239335196
H    -1.838652151    -1.424681534    -0.521159272
N    -1.330147467     0.639462266     0.950444833
H    -1.555501454     1.555202590     1.303839878
H    -0.331055848     0.540943899     0.813804032
$end

$rem
BASIS = aug-cc-pVTZ
JOB_TYPE  =  BSSE
METHOD  =  MP2
SCF_CONVERGENCE  =  8
SCF_MAX_CYCLES  =  200
$end

--------------------------------------------------------------

             Standard Nuclear Orientation (Angstroms)
    I     Atom           X                Y                Z
 ----------------------------------------------------------------
    1      Si     -2.5858853211    -0.1143339865     0.2620319231
    2      H      -3.7917509812    -0.6264234090    -0.4347138230
    3      H      -2.9032575975     1.2279331396     0.7916784722
    4      H      -2.2591735222    -1.0467290849     1.3598704561
    5      N      -1.1584610369     0.0394187766    -0.7258299247
    6      H      -1.1901875083     0.7015993585    -1.4875688974
    7      H      -0.7408614456    -0.8161964864    -1.0634341310
    8      Si      2.4485938726    -0.3986272527     0.0713628100
    9      H       2.4703426166    -1.1759817105     1.3391447064
   10      H       3.8511348877    -0.0488277964    -0.2441083861
   11      H       1.9036518072    -1.2944664363    -0.9756399652
   12      N       1.4930122121     1.0392487169     0.0587845072
   13      H       1.7522914459     1.7990584934     0.6668274340
   14      H       0.4880323496     0.9108188257     0.0497357918
 ----------------------------------------------------------------

   10    -692.6996097186      5.18E-09 Convergence criterion met
 Total energy in the final basis set = -692.69960972
        MP2         total energy =                  -693.42637270 au

                    Orbital Energies (a.u.)
 --------------------------------------------------------------

 Alpha MOs
 -- Occupied --
-68.789 -68.770 -15.550 -15.517  -6.135  -6.116  -4.242  -4.241
 -4.241  -4.223  -4.223  -4.222  -1.153  -1.118  -0.732  -0.711
 -0.666  -0.646  -0.565  -0.542  -0.500  -0.486  -0.482  -0.469
 -0.417  -0.388

          Ground-State Mulliken Net Atomic Charges

     Atom                 Charge (a.u.)
  ----------------------------------------
      1 Si                    1.005163
      2 H                    -0.369044
      3 H                    -0.292481
      4 H                    -0.297510
      5 N                    -0.145729
      6 H                     0.064663
      7 H                     0.077656
      8 Si                    1.087350
      9 H                    -0.359460
     10 H                    -0.332928
     11 H                    -0.310570
     12 N                    -0.526739
     13 H                     0.112767
     14 H                     0.286863
  ----------------------------------------
  Sum of atomic charges =     0.000000

                    Cartesian Multipole Moments
 -----------------------------------------------------------------
    Charge (ESU x 10^10)
                -0.0000
    Dipole Moment (Debye)
         X      -1.3789      Y       0.1979      Z      -0.3572
       Tot       1.4381
    Quadrupole Moments (Debye-Ang)
        XX     -48.1292     XY       0.1764     YY     -43.4630
        XZ       2.4960     YZ       1.9224     ZZ     -43.6281

 Total job time:  1600.51s(wall), 4436.60s(cpu)
        *  Thank you very much for using Q-Chem.  Have a nice day.  *
