 Q-Chem 5.1, Q-Chem, Inc., Pleasanton, CA (2018)
 Q-Chem 5.1.2 for Intel X86 EM64T Linux

User input:
--------------------------------------------------------------
$molecule
0 1
Si     1.924810978     0.221250999     0.126279543
H     1.412655312     0.307098559     1.517792385
H     1.133853934    -0.817922695    -0.568974842
H     1.726171862     1.539629336    -0.510559482
N     3.598001176    -0.193061537    -0.046238154
H     3.898337608    -1.114121400     0.229631138
H     4.290301474     0.485203856     0.228290528
Si    -5.199761114    -0.547414939    -0.304205620
H    -4.966953092    -0.990119607    -1.702485614
H    -4.775092563    -1.643825697     0.591079474
H    -4.371825979     0.657022081    -0.076478306
N    -6.833748257    -0.139501342     0.102733155
H    -7.516430815    -0.879213341     0.143726884
H    -7.244776628     0.675645504    -0.323341365
$end

$rem
BASIS = aug-cc-pVTZ
JOB_TYPE  =  SP
METHOD  =  MP2
SCF_MAX_CYCLES  =  200
$end

--------------------------------------------------------------

    6    -692.7015238345      6.13e-06  Convergence criterion met
 Total energy in the final basis set =     -692.7015238345
        MP2         total energy =                  -693.42094469 au
 Total job time:  226.64s(wall), 1338.44s(cpu)
        *  Thank you very much for using Q-Chem.  Have a nice day.  *
 Q-Chem 5.1, Q-Chem, Inc., Pleasanton, CA (2018)
 Q-Chem 5.1.2 for Intel X86 EM64T Linux

User input:
--------------------------------------------------------------

$molecule
0 1
Si     1.924810978     0.221250999     0.126279543
H     1.412655312     0.307098559     1.517792385
H     1.133853934    -0.817922695    -0.568974842
H     1.726171862     1.539629336    -0.510559482
N     3.598001176    -0.193061537    -0.046238154
H     3.898337608    -1.114121400     0.229631138
H     4.290301474     0.485203856     0.228290528
@Si   -5.199761114    -0.547414939    -0.304205620
@H    -4.966953092    -0.990119607    -1.702485614
@H    -4.775092563    -1.643825697     0.591079474
@H    -4.371825979     0.657022081    -0.076478306
@N    -6.833748257    -0.139501342     0.102733155
@H    -7.516430815    -0.879213341     0.143726884
@H    -7.244776628     0.675645504    -0.323341365
$end

$rem
BASIS = aug-cc-pVTZ
JOB_TYPE  =  SP
METHOD  =  MP2
SCF_MAX_CYCLES  =  200
$end

--------------------------------------------------------------

    6    -346.3507774462      4.33e-06  Convergence criterion met
 Total energy in the final basis set =     -346.3507774462
        MP2         total energy =                  -346.71045025 au
 Total job time:  127.46s(wall), 758.87s(cpu)
        *  Thank you very much for using Q-Chem.  Have a nice day.  *
 Q-Chem 5.1, Q-Chem, Inc., Pleasanton, CA (2018)
 Q-Chem 5.1.2 for Intel X86 EM64T Linux

User input:
--------------------------------------------------------------

$molecule
0 1
@Si     1.924810978     0.221250999     0.126279543
@H      1.412655312     0.307098559     1.517792385
@H      1.133853934    -0.817922695    -0.568974842
@H      1.726171862     1.539629336    -0.510559482
@N      3.598001176    -0.193061537    -0.046238154
@H      3.898337608    -1.114121400     0.229631138
@H      4.290301474     0.485203856     0.228290528
Si    -5.199761114    -0.547414939    -0.304205620
H     -4.966953092    -0.990119607    -1.702485614
H     -4.775092563    -1.643825697     0.591079474
H     -4.371825979     0.657022081    -0.076478306
N     -6.833748257    -0.139501342     0.102733155
H     -7.516430815    -0.879213341     0.143726884
H     -7.244776628     0.675645504    -0.323341365
$end

$rem
BASIS = aug-cc-pVTZ
JOB_TYPE  =  SP
METHOD  =  MP2
SCF_MAX_CYCLES  =  200
$end

--------------------------------------------------------------

             Standard Nuclear Orientation (Angstroms)
    I     Atom           X                Y                Z
 ----------------------------------------------------------------
    1      GH      1.9248109780     0.2212509990     0.1262795430
    2      GH      1.4126553120     0.3070985590     1.5177923850
    3      GH      1.1338539340    -0.8179226950    -0.5689748420
    4      GH      1.7261718620     1.5396293360    -0.5105594820
    5      GH      3.5980011760    -0.1930615370    -0.0462381540
    6      GH      3.8983376080    -1.1141214000     0.2296311380
    7      GH      4.2903014740     0.4852038560     0.2282905280
    8      Si     -5.1997611140    -0.5474149390    -0.3042056200
    9      H      -4.9669530920    -0.9901196070    -1.7024856140
   10      H      -4.7750925630    -1.6438256970     0.5910794740
   11      H      -4.3718259790     0.6570220810    -0.0764783060
   12      N      -6.8337482570    -0.1395013420     0.1027331550
   13      H      -7.5164308150    -0.8792133410     0.1437268840
   14      H      -7.2447766280     0.6756455040    -0.3233413650
 ----------------------------------------------------------------

    6    -346.3507646762      4.34e-06  Convergence criterion met
 Total energy in the final basis set =     -346.3507646762
        MP2         total energy =                  -346.71044906 au

                    Orbital Energies (a.u.)
 --------------------------------------------------------------

 Alpha MOs
 -- Occupied --
-68.778 -15.538  -6.125  -4.231  -4.231  -4.231  -1.137  -0.721
 -0.657  -0.554  -0.492  -0.475  -0.404

          Ground-State Mulliken Net Atomic Charges

     Atom                 Charge (a.u.)
  ----------------------------------------
      1 GH                   -0.000346
      2 GH                    0.000115
      3 GH                    0.000308
      4 GH                    0.000008
      5 GH                   -0.000003
      6 GH                    0.000004
      7 GH                   -0.000004
      8 Si                    1.095957
      9 H                    -0.328034
     10 H                    -0.281960
     11 H                    -0.288965
     12 N                    -0.457131
     13 H                     0.131000
     14 H                     0.129050
  ----------------------------------------
  Sum of atomic charges =    -0.000001

                    Cartesian Multipole Moments
 -----------------------------------------------------------------
    Charge (ESU x 10^10)
                -0.0000
    Dipole Moment (Debye)
         X      -1.0487      Y      -0.0347      Z      -0.6849
       Tot       1.2530
    Quadrupole Moments (Debye-Ang)
        XX      -8.0347     XY       0.7986     YY     -21.1894
        XZ       5.1521     YZ      -0.9705     ZZ     -24.1669

 Total job time:  126.01s(wall), 750.04s(cpu)
        *  Thank you very much for using Q-Chem.  Have a nice day.  *
