 Q-Chem 5.1, Q-Chem, Inc., Pleasanton, CA (2018)
 Q-Chem 5.1.2 for Intel X86 EM64T Linux

User input:
--------------------------------------------------------------
$molecule
0 1
--
0 1
O     2.640573347     0.387661768     0.484745646
H     2.428921256     0.658206165     1.379755289
H     1.777509297     0.191546571     0.091553062
--
0 1
Si    -1.563755194    -0.011809850     0.046770149
H    -2.861612744    -0.275503194    -0.619450777
H    -1.542451869     1.399935318     0.479317006
H    -1.450573820    -0.917577155     1.207620931
N    -0.148580695    -0.267322019    -0.943186029
H    -0.033187209     0.340133872    -1.742035039
H     0.040518545    -1.216742097    -1.231566586
$end

$rem
BASIS = aug-cc-pVTZ
JOB_TYPE  =  BSSE
METHOD  =  MP2
SCF_CONVERGENCE  =  7
SCF_MAX_CYCLES  =  200
$end

--------------------------------------------------------------

             Standard Nuclear Orientation (Angstroms)
    I     Atom           X                Y                Z
 ----------------------------------------------------------------
    1      O       2.8076387703     0.1919591751    -0.0024166328
    2      H       2.7467056971     1.1484550473     0.0184627008
    3      H       1.8841263685    -0.0995124532     0.0080841605
    4      Si     -1.4360588535     0.3290930811    -0.0005835727
    5      H      -2.8315934822    -0.1697740620    -0.0384437853
    6      H      -1.2107994796     1.1688370338    -1.1941761929
    7      H      -1.2633526843     1.1180955684     1.2357200415
    8      N      -0.2000791372    -0.9039399844     0.0008880666
    9      H      -0.1300789745    -1.4826839029    -0.8241170915
   10      H      -0.1507396977    -1.4988138778     0.8157567820
 ----------------------------------------------------------------

    8    -422.4157131434      7.70E-08 Convergence criterion met
 Total energy in the final basis set = -422.41571314
        MP2         total energy =                  -423.04762322 au

                    Orbital Energies (a.u.)
 --------------------------------------------------------------

 Alpha MOs
 -- Occupied --
-68.792 -20.542 -15.556  -6.139  -4.245  -4.245  -4.245  -1.327
 -1.154  -0.735  -0.691  -0.670  -0.570  -0.562  -0.506  -0.489
 -0.486  -0.424

          Ground-State Mulliken Net Atomic Charges

     Atom                 Charge (a.u.)
  ----------------------------------------
      1 O                    -0.510682
      2 H                     0.186109
      3 H                     0.339395
      4 Si                    1.050823
      5 H                    -0.363836
      6 H                    -0.275281
      7 H                    -0.276688
      8 N                    -0.347276
      9 H                     0.098793
     10 H                     0.098643
  ----------------------------------------
  Sum of atomic charges =    -0.000000

                    Cartesian Multipole Moments
 -----------------------------------------------------------------
    Charge (ESU x 10^10)
                -0.0000
    Dipole Moment (Debye)
         X      -2.5469      Y      -0.2496      Z       0.0287
       Tot       2.5592
    Quadrupole Moments (Debye-Ang)
        XX     -39.6161     XY       3.3873     YY     -23.9355
        XZ       0.0876     YZ       0.0518     ZZ     -28.2399

 Total job time:  291.58s(wall), 608.09s(cpu)
        *  Thank you very much for using Q-Chem.  Have a nice day.  *
