 Q-Chem 5.1, Q-Chem, Inc., Pleasanton, CA (2018)
 Q-Chem 5.1.2 for Intel X86 EM64T Linux

User input:
--------------------------------------------------------------
$molecule
0 1
--
0 1
O     2.727262800     0.140250979     0.206246615
H     2.747771752     1.047748175    -0.107062323
H     2.825602485    -0.377966203    -0.596211209
--
0 1
Si     0.152469339     0.009009520     0.188472977
H     0.573560991    -0.321653451     1.569194718
H     0.613728121     1.376800242    -0.132146988
H     0.733564900    -0.985060588    -0.738320169
N    -1.562845774    -0.007182296    -0.094645802
H    -2.126240071     0.688166491     0.368845271
H    -2.038502020    -0.895028198    -0.059460193
$end

$rem
BASIS = aug-cc-pVTZ
JOB_TYPE  =  BSSE
METHOD  =  MP2
SCF_CONVERGENCE  =  7
SCF_MAX_CYCLES  =  200
$end

--------------------------------------------------------------

             Standard Nuclear Orientation (Angstroms)
    I     Atom           X                Y                Z
 ----------------------------------------------------------------
    1      O       2.2765552386    -0.0061875529     0.0558503417
    2      H       2.3362161304     0.7733982389    -0.5016627430
    3      H       2.3328770618    -0.7344597840    -0.5675321334
    4      Si     -0.3014240222     0.0011366080     0.0885745995
    5      H       0.1299484032     0.0518559956     1.5043408515
    6      H       0.2212334361     1.1958868156    -0.6084256931
    7      H       0.2106731054    -1.2439001031    -0.5216983607
    8      N      -2.0206875114    -0.0023763384    -0.1699695336
    9      H      -2.5392621928     0.8247379810     0.0804486100
   10      H      -2.5393789615    -0.8172968636     0.1174690764
 ----------------------------------------------------------------

    9    -422.4007286595      6.52E-08 Convergence criterion met
 Total energy in the final basis set = -422.40072866
        MP2         total energy =                  -423.03659087 au

                    Orbital Energies (a.u.)
 --------------------------------------------------------------

 Alpha MOs
 -- Occupied --
-68.769 -20.577 -15.524  -6.114  -4.220  -4.220  -4.220  -1.369
 -1.124  -0.730  -0.715  -0.643  -0.605  -0.565  -0.502  -0.472
 -0.469  -0.391

          Ground-State Mulliken Net Atomic Charges

     Atom                 Charge (a.u.)
  ----------------------------------------
      1 O                    -0.487186
      2 H                     0.226074
      3 H                     0.227189
      4 Si                    1.239866
      5 H                    -0.268790
      6 H                    -0.269491
      7 H                    -0.264513
      8 N                    -0.636484
      9 H                     0.116610
     10 H                     0.116725
  ----------------------------------------
  Sum of atomic charges =     0.000000

                    Cartesian Multipole Moments
 -----------------------------------------------------------------
    Charge (ESU x 10^10)
                 0.0000
    Dipole Moment (Debye)
         X       0.0984      Y       0.0943      Z      -0.8494
       Tot       0.8603
    Quadrupole Moments (Debye-Ang)
        XX     -25.4274     XY       0.1428     YY     -25.5671
        XZ      -7.2484     YZ       0.0038     ZZ     -30.5086

 Total job time:  313.59s(wall), 669.22s(cpu)
        *  Thank you very much for using Q-Chem.  Have a nice day.  *
