 Q-Chem 5.1, Q-Chem, Inc., Pleasanton, CA (2018)
 Q-Chem 5.1.2 for Intel X86 EM64T Linux

User input:
--------------------------------------------------------------
$molecule
0 1
Si     1.924810978     0.221250999     0.126279543
H     1.412655312     0.307098559     1.517792385
H     1.133853934    -0.817922695    -0.568974842
H     1.726171862     1.539629336    -0.510559482
N     3.598001176    -0.193061537    -0.046238154
H     3.898337608    -1.114121400     0.229631138
H     4.290301474     0.485203856     0.228290528
Si    -1.937229639    -0.350261466    -0.200868537
H    -1.704421617    -0.792966134    -1.599148532
H    -1.512561089    -1.446672224     0.694416556
H    -1.109294504     0.854175555     0.026858776
N    -3.571216783     0.057652131     0.206070237
H    -4.253899340    -0.682059868     0.247063967
H    -3.982245153     0.872798977    -0.220004283
$end

$rem
BASIS = aug-cc-pVTZ
JOB_TYPE  =  SP
METHOD  =  MP2
SCF_MAX_CYCLES  =  200
$end

--------------------------------------------------------------

    6    -692.7000693473      6.07e-06  Convergence criterion met
 Total energy in the final basis set =     -692.7000693473
        MP2         total energy =                  -693.42337264 au
 Total job time:  390.27s(wall), 2313.45s(cpu)
        *  Thank you very much for using Q-Chem.  Have a nice day.  *
 Q-Chem 5.1, Q-Chem, Inc., Pleasanton, CA (2018)
 Q-Chem 5.1.2 for Intel X86 EM64T Linux

User input:
--------------------------------------------------------------

$molecule
0 1
Si     1.924810978     0.221250999     0.126279543
H     1.412655312     0.307098559     1.517792385
H     1.133853934    -0.817922695    -0.568974842
H     1.726171862     1.539629336    -0.510559482
N     3.598001176    -0.193061537    -0.046238154
H     3.898337608    -1.114121400     0.229631138
H     4.290301474     0.485203856     0.228290528
@Si   -1.937229639    -0.350261466    -0.200868537
@H    -1.704421617    -0.792966134    -1.599148532
@H    -1.512561089    -1.446672224     0.694416556
@H    -1.109294504     0.854175555     0.026858776
@N    -3.571216783     0.057652131     0.206070237
@H    -4.253899340    -0.682059868     0.247063967
@H    -3.982245153     0.872798977    -0.220004283
$end

$rem
BASIS = aug-cc-pVTZ
JOB_TYPE  =  SP
METHOD  =  MP2
SCF_MAX_CYCLES  =  200
$end

--------------------------------------------------------------

    6    -346.3508712375      4.33e-06  Convergence criterion met
 Total energy in the final basis set =     -346.3508712375
        MP2         total energy =                  -346.71079127 au
 Total job time:  217.54s(wall), 1297.52s(cpu)
        *  Thank you very much for using Q-Chem.  Have a nice day.  *
 Q-Chem 5.1, Q-Chem, Inc., Pleasanton, CA (2018)
 Q-Chem 5.1.2 for Intel X86 EM64T Linux

User input:
--------------------------------------------------------------

$molecule
0 1
@Si     1.924810978     0.221250999     0.126279543
@H      1.412655312     0.307098559     1.517792385
@H      1.133853934    -0.817922695    -0.568974842
@H      1.726171862     1.539629336    -0.510559482
@N      3.598001176    -0.193061537    -0.046238154
@H      3.898337608    -1.114121400     0.229631138
@H      4.290301474     0.485203856     0.228290528
Si    -1.937229639    -0.350261466    -0.200868537
H     -1.704421617    -0.792966134    -1.599148532
H     -1.512561089    -1.446672224     0.694416556
H     -1.109294504     0.854175555     0.026858776
N     -3.571216783     0.057652131     0.206070237
H     -4.253899340    -0.682059868     0.247063967
H     -3.982245153     0.872798977    -0.220004283
$end

$rem
BASIS = aug-cc-pVTZ
JOB_TYPE  =  SP
METHOD  =  MP2
SCF_MAX_CYCLES  =  200
$end

--------------------------------------------------------------

             Standard Nuclear Orientation (Angstroms)
    I     Atom           X                Y                Z
 ----------------------------------------------------------------
    1      GH      1.9248109780     0.2212509990     0.1262795430
    2      GH      1.4126553120     0.3070985590     1.5177923850
    3      GH      1.1338539340    -0.8179226950    -0.5689748420
    4      GH      1.7261718620     1.5396293360    -0.5105594820
    5      GH      3.5980011760    -0.1930615370    -0.0462381540
    6      GH      3.8983376080    -1.1141214000     0.2296311380
    7      GH      4.2903014740     0.4852038560     0.2282905280
    8      Si     -1.9372296390    -0.3502614660    -0.2008685370
    9      H      -1.7044216170    -0.7929661340    -1.5991485320
   10      H      -1.5125610890    -1.4466722240     0.6944165560
   11      H      -1.1092945040     0.8541755550     0.0268587760
   12      N      -3.5712167830     0.0576521310     0.2060702370
   13      H      -4.2538993400    -0.6820598680     0.2470639670
   14      H      -3.9822451530     0.8727989770    -0.2200042830
 ----------------------------------------------------------------

    6    -346.3508619291      4.35e-06  Convergence criterion met
 Total energy in the final basis set =     -346.3508619291
        MP2         total energy =                  -346.71079155 au

                    Orbital Energies (a.u.)
 --------------------------------------------------------------

 Alpha MOs
 -- Occupied --
-68.778 -15.538  -6.125  -4.231  -4.231  -4.231  -1.137  -0.721
 -0.657  -0.554  -0.492  -0.475  -0.404

          Ground-State Mulliken Net Atomic Charges

     Atom                 Charge (a.u.)
  ----------------------------------------
      1 GH                    0.035699
      2 GH                   -0.003082
      3 GH                    0.001012
      4 GH                    0.001838
      5 GH                   -0.006362
      6 GH                   -0.000477
      7 GH                    0.000046
      8 Si                    1.135677
      9 H                    -0.310908
     10 H                    -0.260532
     11 H                    -0.219326
     12 N                    -0.621860
     13 H                     0.116565
     14 H                     0.131710
  ----------------------------------------
  Sum of atomic charges =     0.000000

                    Cartesian Multipole Moments
 -----------------------------------------------------------------
    Charge (ESU x 10^10)
                 0.0000
    Dipole Moment (Debye)
         X      -1.0491      Y      -0.0345      Z      -0.6845
       Tot       1.2531
    Quadrupole Moments (Debye-Ang)
        XX     -14.8714     XY       0.4766     YY     -21.2039
        XZ       2.8082     YZ      -1.1069     ZZ     -24.3066

 Total job time:  217.78s(wall), 1298.44s(cpu)
        *  Thank you very much for using Q-Chem.  Have a nice day.  *
