 Q-Chem 5.1, Q-Chem, Inc., Pleasanton, CA (2018)
 Q-Chem 5.1.2 for Intel X86 EM64T Linux

User input:
--------------------------------------------------------------
$molecule
0 1
Si     1.924810978     0.221250999     0.126279543
H     1.412655312     0.307098559     1.517792385
H     1.133853934    -0.817922695    -0.568974842
H     1.726171862     1.539629336    -0.510559482
N     3.598001176    -0.193061537    -0.046238154
H     3.898337608    -1.114121400     0.229631138
H     4.290301474     0.485203856     0.228290528
Si    -1.225616306    -0.307258956    -0.178328971
H    -0.992808284    -0.749963624    -1.576608965
H    -0.800947756    -1.403669714     0.716956123
H    -0.397681171     0.897178064     0.049398343
N    -2.859603449     0.100654640     0.228609804
H    -3.542286007    -0.639057359     0.269603533
H    -3.270631820     0.915801487    -0.197464716
$end

$rem
BASIS = aug-cc-pVTZ
JOB_TYPE  =  SP
METHOD  =  MP2
SCF_MAX_CYCLES  =  200
$end

--------------------------------------------------------------

    6    -692.6869907685      5.75e-06  Convergence criterion met
 Total energy in the final basis set =     -692.6869907685
        MP2         total energy =                  -693.41783996 au
 Total job time:  421.87s(wall), 2502.59s(cpu)
        *  Thank you very much for using Q-Chem.  Have a nice day.  *
 Q-Chem 5.1, Q-Chem, Inc., Pleasanton, CA (2018)
 Q-Chem 5.1.2 for Intel X86 EM64T Linux

User input:
--------------------------------------------------------------

$molecule
0 1
Si     1.924810978     0.221250999     0.126279543
H     1.412655312     0.307098559     1.517792385
H     1.133853934    -0.817922695    -0.568974842
H     1.726171862     1.539629336    -0.510559482
N     3.598001176    -0.193061537    -0.046238154
H     3.898337608    -1.114121400     0.229631138
H     4.290301474     0.485203856     0.228290528
@Si   -1.225616306    -0.307258956    -0.178328971
@H    -0.992808284    -0.749963624    -1.576608965
@H    -0.800947756    -1.403669714     0.716956123
@H    -0.397681171     0.897178064     0.049398343
@N    -2.859603449     0.100654640     0.228609804
@H    -3.542286007    -0.639057359     0.269603533
@H    -3.270631820     0.915801487    -0.197464716
$end

$rem
BASIS = aug-cc-pVTZ
JOB_TYPE  =  SP
METHOD  =  MP2
SCF_MAX_CYCLES  =  200
$end

--------------------------------------------------------------

    6    -346.3509653034      4.33e-06  Convergence criterion met
 Total energy in the final basis set =     -346.3509653034
        MP2         total energy =                  -346.71114001 au
 Total job time:  241.87s(wall), 1442.95s(cpu)
        *  Thank you very much for using Q-Chem.  Have a nice day.  *
 Q-Chem 5.1, Q-Chem, Inc., Pleasanton, CA (2018)
 Q-Chem 5.1.2 for Intel X86 EM64T Linux

User input:
--------------------------------------------------------------

$molecule
0 1
@Si     1.924810978     0.221250999     0.126279543
@H      1.412655312     0.307098559     1.517792385
@H      1.133853934    -0.817922695    -0.568974842
@H      1.726171862     1.539629336    -0.510559482
@N      3.598001176    -0.193061537    -0.046238154
@H      3.898337608    -1.114121400     0.229631138
@H      4.290301474     0.485203856     0.228290528
Si    -1.225616306    -0.307258956    -0.178328971
H     -0.992808284    -0.749963624    -1.576608965
H     -0.800947756    -1.403669714     0.716956123
H     -0.397681171     0.897178064     0.049398343
N     -2.859603449     0.100654640     0.228609804
H     -3.542286007    -0.639057359     0.269603533
H     -3.270631820     0.915801487    -0.197464716
$end

$rem
BASIS = aug-cc-pVTZ
JOB_TYPE  =  SP
METHOD  =  MP2
SCF_MAX_CYCLES  =  200
$end

--------------------------------------------------------------

             Standard Nuclear Orientation (Angstroms)
    I     Atom           X                Y                Z
 ----------------------------------------------------------------
    1      GH      1.9248109780     0.2212509990     0.1262795430
    2      GH      1.4126553120     0.3070985590     1.5177923850
    3      GH      1.1338539340    -0.8179226950    -0.5689748420
    4      GH      1.7261718620     1.5396293360    -0.5105594820
    5      GH      3.5980011760    -0.1930615370    -0.0462381540
    6      GH      3.8983376080    -1.1141214000     0.2296311380
    7      GH      4.2903014740     0.4852038560     0.2282905280
    8      Si     -1.2256163060    -0.3072589560    -0.1783289710
    9      H      -0.9928082840    -0.7499636240    -1.5766089650
   10      H      -0.8009477560    -1.4036697140     0.7169561230
   11      H      -0.3976811710     0.8971780640     0.0493983430
   12      N      -2.8596034490     0.1006546400     0.2286098040
   13      H      -3.5422860070    -0.6390573590     0.2696035330
   14      H      -3.2706318200     0.9158014870    -0.1974647160
 ----------------------------------------------------------------

    6    -346.3509452953      4.35e-06  Convergence criterion met
 Total energy in the final basis set =     -346.3509452953
        MP2         total energy =                  -346.71113361 au

                    Orbital Energies (a.u.)
 --------------------------------------------------------------

 Alpha MOs
 -- Occupied --
-68.779 -15.538  -6.125  -4.231  -4.231  -4.231  -1.137  -0.721
 -0.657  -0.554  -0.492  -0.475  -0.404

          Ground-State Mulliken Net Atomic Charges

     Atom                 Charge (a.u.)
  ----------------------------------------
      1 GH                   -0.051607
      2 GH                    0.011197
      3 GH                   -0.041726
      4 GH                    0.026765
      5 GH                   -0.008749
      6 GH                   -0.000183
      7 GH                    0.000576
      8 Si                    1.339855
      9 H                    -0.338100
     10 H                    -0.283100
     11 H                    -0.197383
     12 N                    -0.694559
     13 H                     0.107362
     14 H                     0.129653
  ----------------------------------------
  Sum of atomic charges =    -0.000000

                    Cartesian Multipole Moments
 -----------------------------------------------------------------
    Charge (ESU x 10^10)
                -0.0000
    Dipole Moment (Debye)
         X      -1.0494      Y      -0.0343      Z      -0.6842
       Tot       1.2532
    Quadrupole Moments (Debye-Ang)
        XX     -16.3625     XY       0.4068     YY     -21.2070
        XZ       2.2977     YZ      -1.1367     ZZ     -24.3356

 Total job time:  243.18s(wall), 1451.15s(cpu)
        *  Thank you very much for using Q-Chem.  Have a nice day.  *
