 Q-Chem 5.1, Q-Chem, Inc., Pleasanton, CA (2018)
 Q-Chem 5.1.2 for Intel X86 EM64T Linux

User input:
--------------------------------------------------------------
$molecule
0 1
Si     1.924810978     0.221250999     0.126279543
H     1.412655312     0.307098559     1.517792385
H     1.133853934    -0.817922695    -0.568974842
H     1.726171862     1.539629336    -0.510559482
N     3.598001176    -0.193061537    -0.046238154
H     3.898337608    -1.114121400     0.229631138
H     4.290301474     0.485203856     0.228290528
Si    -1.740199926    -0.338355039    -0.194627839
H    -1.507391904    -0.781059707    -1.592907833
H    -1.315531375    -1.434765797     0.700657255
H    -0.912264791     0.866081981     0.033099475
N    -3.374187069     0.069558558     0.212310936
H    -4.056869627    -0.670153441     0.253304665
H    -3.785215440     0.884705404    -0.213763584
$end

$rem
BASIS = aug-cc-pVTZ
JOB_TYPE  =  SP
METHOD  =  MP2
SCF_MAX_CYCLES  =  200
$end

--------------------------------------------------------------

    6    -692.6986200523      6.02e-06  Convergence criterion met
 Total energy in the final basis set =     -692.6986200523
        MP2         total energy =                  -693.42326661 au
 Total job time:  372.52s(wall), 2209.31s(cpu)
        *  Thank you very much for using Q-Chem.  Have a nice day.  *
 Q-Chem 5.1, Q-Chem, Inc., Pleasanton, CA (2018)
 Q-Chem 5.1.2 for Intel X86 EM64T Linux

User input:
--------------------------------------------------------------

$molecule
0 1
Si     1.924810978     0.221250999     0.126279543
H     1.412655312     0.307098559     1.517792385
H     1.133853934    -0.817922695    -0.568974842
H     1.726171862     1.539629336    -0.510559482
N     3.598001176    -0.193061537    -0.046238154
H     3.898337608    -1.114121400     0.229631138
H     4.290301474     0.485203856     0.228290528
@Si   -1.740199926    -0.338355039    -0.194627839
@H    -1.507391904    -0.781059707    -1.592907833
@H    -1.315531375    -1.434765797     0.700657255
@H    -0.912264791     0.866081981     0.033099475
@N    -3.374187069     0.069558558     0.212310936
@H    -4.056869627    -0.670153441     0.253304665
@H    -3.785215440     0.884705404    -0.213763584
$end

$rem
BASIS = aug-cc-pVTZ
JOB_TYPE  =  SP
METHOD  =  MP2
SCF_MAX_CYCLES  =  200
$end

--------------------------------------------------------------

    6    -346.3508921179      4.33e-06  Convergence criterion met
 Total energy in the final basis set =     -346.3508921179
        MP2         total energy =                  -346.71086417 au
 Total job time:  217.00s(wall), 1294.12s(cpu)
        *  Thank you very much for using Q-Chem.  Have a nice day.  *
 Q-Chem 5.1, Q-Chem, Inc., Pleasanton, CA (2018)
 Q-Chem 5.1.2 for Intel X86 EM64T Linux

User input:
--------------------------------------------------------------

$molecule
0 1
@Si     1.924810978     0.221250999     0.126279543
@H      1.412655312     0.307098559     1.517792385
@H      1.133853934    -0.817922695    -0.568974842
@H      1.726171862     1.539629336    -0.510559482
@N      3.598001176    -0.193061537    -0.046238154
@H      3.898337608    -1.114121400     0.229631138
@H      4.290301474     0.485203856     0.228290528
Si    -1.740199926    -0.338355039    -0.194627839
H     -1.507391904    -0.781059707    -1.592907833
H     -1.315531375    -1.434765797     0.700657255
H     -0.912264791     0.866081981     0.033099475
N     -3.374187069     0.069558558     0.212310936
H     -4.056869627    -0.670153441     0.253304665
H     -3.785215440     0.884705404    -0.213763584
$end

$rem
BASIS = aug-cc-pVTZ
JOB_TYPE  =  SP
METHOD  =  MP2
SCF_MAX_CYCLES  =  200
$end

--------------------------------------------------------------

             Standard Nuclear Orientation (Angstroms)
    I     Atom           X                Y                Z
 ----------------------------------------------------------------
    1      GH      1.9248109780     0.2212509990     0.1262795430
    2      GH      1.4126553120     0.3070985590     1.5177923850
    3      GH      1.1338539340    -0.8179226950    -0.5689748420
    4      GH      1.7261718620     1.5396293360    -0.5105594820
    5      GH      3.5980011760    -0.1930615370    -0.0462381540
    6      GH      3.8983376080    -1.1141214000     0.2296311380
    7      GH      4.2903014740     0.4852038560     0.2282905280
    8      Si     -1.7401999260    -0.3383550390    -0.1946278390
    9      H      -1.5073919040    -0.7810597070    -1.5929078330
   10      H      -1.3155313750    -1.4347657970     0.7006572550
   11      H      -0.9122647910     0.8660819810     0.0330994750
   12      N      -3.3741870690     0.0695585580     0.2123109360
   13      H      -4.0568696270    -0.6701534410     0.2533046650
   14      H      -3.7852154400     0.8847054040    -0.2137635840
 ----------------------------------------------------------------

    6    -346.3508825772      4.35e-06  Convergence criterion met
 Total energy in the final basis set =     -346.3508825772
        MP2         total energy =                  -346.71086467 au

                    Orbital Energies (a.u.)
 --------------------------------------------------------------

 Alpha MOs
 -- Occupied --
-68.779 -15.538  -6.125  -4.231  -4.231  -4.231  -1.137  -0.721
 -0.657  -0.554  -0.492  -0.475  -0.404

          Ground-State Mulliken Net Atomic Charges

     Atom                 Charge (a.u.)
  ----------------------------------------
      1 GH                    0.023805
      2 GH                   -0.002199
      3 GH                   -0.010122
      4 GH                    0.004656
      5 GH                   -0.008999
      6 GH                   -0.000574
      7 GH                    0.000013
      8 Si                    1.170387
      9 H                    -0.313002
     10 H                    -0.260945
     11 H                    -0.202374
     12 N                    -0.647869
     13 H                     0.114924
     14 H                     0.132299
  ----------------------------------------
  Sum of atomic charges =    -0.000000

                    Cartesian Multipole Moments
 -----------------------------------------------------------------
    Charge (ESU x 10^10)
                -0.0000
    Dipole Moment (Debye)
         X      -1.0492      Y      -0.0344      Z      -0.6844
       Tot       1.2532
    Quadrupole Moments (Debye-Ang)
        XX     -15.2841     XY       0.4571     YY     -21.2049
        XZ       2.6667     YZ      -1.1149     ZZ     -24.3144

 Total job time:  213.99s(wall), 1276.10s(cpu)
        *  Thank you very much for using Q-Chem.  Have a nice day.  *
