 Q-Chem 5.1, Q-Chem, Inc., Pleasanton, CA (2018)
 Q-Chem 5.1.2 for Intel X86 EM64T Linux

User input:
--------------------------------------------------------------
$molecule
0 1
Si     2.206519773     0.028225580     0.000619108
H     1.719687849     0.752119435    -1.196193955
H     1.720552923     0.738931435     1.205678115
H     1.620645936    -1.331752276    -0.006589851
C     4.082202750    -0.060760672    -0.000507565
H     4.444822828    -0.592187257     0.877602138
H     4.444224422    -0.582384122    -0.884721181
H     4.516939396     0.937214734     0.004896367
Si    -3.485118404    -0.011671853     0.002260074
H    -4.023528408     0.670388075    -1.197012368
H    -4.013171168     0.673329943     1.204453960
H    -3.979939170    -1.407551696     0.006095435
C    -1.607405148     0.022841889    -0.005864166
H    -1.208149721    -0.477948608     0.874523966
H    -1.215651520    -0.480317693    -0.888268785
H    -1.240438479     1.047927676    -0.008824406
$end

$rem
BASIS = aug-cc-pVTZ
JOB_TYPE  =  SP
METHOD  =  MP2
SCF_MAX_CYCLES  =  200
$end

--------------------------------------------------------------

    6    -660.6455136196      3.56e-06  Convergence criterion met
 Total energy in the final basis set =     -660.6455136196
        MP2         total energy =                  -661.29547139 au
 Total job time:  565.08s(wall), 3346.45s(cpu)
        *  Thank you very much for using Q-Chem.  Have a nice day.  *
 Q-Chem 5.1, Q-Chem, Inc., Pleasanton, CA (2018)
 Q-Chem 5.1.2 for Intel X86 EM64T Linux

User input:
--------------------------------------------------------------

$molecule
0 1
Si     2.206519773     0.028225580     0.000619108
H     1.719687849     0.752119435    -1.196193955
H     1.720552923     0.738931435     1.205678115
H     1.620645936    -1.331752276    -0.006589851
C     4.082202750    -0.060760672    -0.000507565
H     4.444822828    -0.592187257     0.877602138
H     4.444224422    -0.582384122    -0.884721181
H     4.516939396     0.937214734     0.004896367
@Si    -3.485118404    -0.011671853     0.002260074
@H    -4.023528408     0.670388075    -1.197012368
@H    -4.013171168     0.673329943     1.204453960
@H    -3.979939170    -1.407551696     0.006095435
@C    -1.607405148     0.022841889    -0.005864166
@H    -1.208149721    -0.477948608     0.874523966
@H    -1.215651520    -0.480317693    -0.888268785
@H    -1.240438479     1.047927676    -0.008824406
$end

$rem
BASIS = aug-cc-pVTZ
JOB_TYPE  =  SP
METHOD  =  MP2
SCF_MAX_CYCLES  =  200
$end

--------------------------------------------------------------

    6    -330.3232245828      2.48e-06  Convergence criterion met
 Total energy in the final basis set =     -330.3232245828
        MP2         total energy =                  -330.64707516 au
 Total job time:  508.56s(wall), 3039.32s(cpu)
        *  Thank you very much for using Q-Chem.  Have a nice day.  *
 Q-Chem 5.1, Q-Chem, Inc., Pleasanton, CA (2018)
 Q-Chem 5.1.2 for Intel X86 EM64T Linux

User input:
--------------------------------------------------------------

$molecule
0 1
@Si     2.206519773     0.028225580     0.000619108
@H     1.719687849     0.752119435    -1.196193955
@H     1.720552923     0.738931435     1.205678115
@H     1.620645936    -1.331752276    -0.006589851
@C     4.082202750    -0.060760672    -0.000507565
@H     4.444822828    -0.592187257     0.877602138
@H     4.444224422    -0.582384122    -0.884721181
@H     4.516939396     0.937214734     0.004896367
Si    -3.485118404    -0.011671853     0.002260074
H    -4.023528408     0.670388075    -1.197012368
H    -4.013171168     0.673329943     1.204453960
H    -3.979939170    -1.407551696     0.006095435
C    -1.607405148     0.022841889    -0.005864166
H    -1.208149721    -0.477948608     0.874523966
H    -1.215651520    -0.480317693    -0.888268785
H    -1.240438479     1.047927676    -0.008824406
$end

$rem
BASIS = aug-cc-pVTZ
JOB_TYPE  =  SP
METHOD  =  MP2
SCF_MAX_CYCLES  =  200
$end

--------------------------------------------------------------

             Standard Nuclear Orientation (Angstroms)
    I     Atom           X                Y                Z
 ----------------------------------------------------------------
    1      GH      2.2065197730     0.0282255800     0.0006191080
    2      GH      1.7196878490     0.7521194350    -1.1961939550
    3      GH      1.7205529230     0.7389314350     1.2056781150
    4      GH      1.6206459360    -1.3317522760    -0.0065898510
    5      GH      4.0822027500    -0.0607606720    -0.0005075650
    6      GH      4.4448228280    -0.5921872570     0.8776021380
    7      GH      4.4442244220    -0.5823841220    -0.8847211810
    8      GH      4.5169393960     0.9372147340     0.0048963670
    9      Si     -3.4851184040    -0.0116718530     0.0022600740
   10      H      -4.0235284080     0.6703880750    -1.1970123680
   11      H      -4.0131711680     0.6733299430     1.2044539600
   12      H      -3.9799391700    -1.4075516960     0.0060954350
   13      C      -1.6074051480     0.0228418890    -0.0058641660
   14      H      -1.2081497210    -0.4779486080     0.8745239660
   15      H      -1.2156515200    -0.4803176930    -0.8882687850
   16      H      -1.2404384790     1.0479276760    -0.0088244060
 ----------------------------------------------------------------

    6    -330.3231943630      2.48e-06  Convergence criterion met
 Total energy in the final basis set =     -330.3231943630
        MP2         total energy =                  -330.64698637 au

                    Orbital Energies (a.u.)
 --------------------------------------------------------------

 Alpha MOs
 -- Occupied --
-68.766 -11.209  -6.114  -4.221  -4.221  -4.220  -0.950  -0.699
 -0.565  -0.565  -0.469  -0.469  -0.455

          Ground-State Mulliken Net Atomic Charges

     Atom                 Charge (a.u.)
  ----------------------------------------
      1 GH                   -0.000655
      2 GH                    0.001387
      3 GH                    0.001438
      4 GH                    0.001939
      5 GH                   -0.005258
      6 GH                   -0.000810
      7 GH                   -0.000813
      8 GH                   -0.000778
      9 Si                    1.316860
     10 H                    -0.415457
     11 H                    -0.415394
     12 H                    -0.414175
     13 C                    -1.067945
     14 H                     0.332314
     15 H                     0.331973
     16 H                     0.335350
  ----------------------------------------
  Sum of atomic charges =    -0.000025

                    Cartesian Multipole Moments
 -----------------------------------------------------------------
    Charge (ESU x 10^10)
                -0.0001
    Dipole Moment (Debye)
         X       0.7119      Y       0.0133      Z      -0.0031
       Tot       0.7120
    Quadrupole Moments (Debye-Ang)
        XX     -27.7510     XY      -0.0467     YY     -23.2776
        XZ       0.0100     YZ       0.0000     ZZ     -23.2791

 Total job time:  513.79s(wall), 3072.02s(cpu)
        *  Thank you very much for using Q-Chem.  Have a nice day.  *
