 Q-Chem 5.1, Q-Chem, Inc., Pleasanton, CA (2018)
 Q-Chem 5.1.2 for Intel X86 EM64T Linux

User input:
--------------------------------------------------------------
$molecule
0 1
--
0 1
O     3.417192278    -0.078854989     0.000000000
H     3.621539415     0.858418795     0.000000000
H     2.457629173    -0.098605673     0.000000000
--
0 1
Si    -1.795903212    -0.030528859     0.000000000
H    -2.274682497    -0.747039227     1.203009641
H    -2.274682497    -0.747039227    -1.203009641
H    -2.370730467     1.333506131     0.000000000
C     0.083668757     0.056043224     0.000000000
H     0.441027621     0.580357341    -0.885246536
H     0.503626913    -0.949353446     0.000000000
H     0.441027621     0.580357341     0.885246536
$end

$rem
BASIS = aug-cc-pVTZ
JOB_TYPE  =  BSSE
METHOD  =  MP2
SCF_CONVERGENCE  =  7
SCF_MAX_CYCLES  =  200
$end

--------------------------------------------------------------

             Standard Nuclear Orientation (Angstroms)
    I     Atom           X                Y                Z
 ----------------------------------------------------------------
    1      O       3.3261110669    -0.1161850850     0.0000000000
    2      H       3.5402708690     0.8188953809    -0.0000000000
    3      H       2.3663936577    -0.1258771720     0.0000000000
    4      Si     -1.8861915407    -0.0132213562     0.0000000000
    5      H      -2.3724545185    -0.7246741147     1.2030096410
    6      H      -2.3724545185    -0.7246741147    -1.2030096410
    7      H      -2.4466902984     1.3567636692    -0.0000000000
    8      C      -0.0058154263     0.0536455287    -0.0000000000
    9      H       0.3570193250     0.5741852431    -0.8852465360
   10      H       0.4035817515    -0.9560976405     0.0000000000
   11      H       0.3570193250     0.5741852431     0.8852465360
 ----------------------------------------------------------------

    8    -406.3823033439      4.64E-08 Convergence criterion met
 Total energy in the final basis set = -406.38230334
        MP2         total energy =                  -406.97764884 au

             Orbital Energies (a.u.) and Symmetries
 --------------------------------------------------------------

 Alpha MOs, Restricted
 -- Occupied --
-68.776 -20.561 -11.223  -6.124  -4.231  -4.231  -4.230  -1.348
  1 A'    2 A'    3 A'    4 A'    1 A"    5 A'    6 A'    7 A'
 -0.967  -0.717  -0.703  -0.583  -0.582  -0.581  -0.505  -0.478
  8 A'    9 A'   10 A'   11 A'    2 A"   12 A'    3 A"   13 A'
 -0.478  -0.466
  4 A"   14 A'

 Beta MOs, Restricted
 -- Occupied --
-68.776 -20.561 -11.223  -6.124  -4.231  -4.231  -4.230  -1.348
  1 A'    2 A'    3 A'    4 A'    1 A"    5 A'    6 A'    7 A'
 -0.967  -0.717  -0.703  -0.583  -0.582  -0.581  -0.505  -0.478
  8 A'    9 A'   10 A'   11 A'    2 A"   12 A'    3 A"   13 A'
 -0.478  -0.466
  4 A"   14 A'

          Ground-State Mulliken Net Atomic Charges

     Atom                 Charge (a.u.)
  ----------------------------------------
      1 O                    -0.531296
      2 H                     0.191373
      3 H                     0.338543
      4 Si                    1.314954
      5 H                    -0.373698
      6 H                    -0.373698
      7 H                    -0.387263
      8 C                    -0.995084
      9 H                     0.273873
     10 H                     0.268422
     11 H                     0.273873
  ----------------------------------------
  Sum of atomic charges =    -0.000000

                    Cartesian Multipole Moments
 -----------------------------------------------------------------
    Charge (ESU x 10^10)
                -0.0000
    Dipole Moment (Debye)
         X      -1.0460      Y       1.5294      Z      -0.0000
       Tot       1.8529
    Quadrupole Moments (Debye-Ang)
        XX     -38.7776     XY       6.0366     YY     -28.6414
        XZ      -0.0000     YZ       0.0000     ZZ     -30.6371

 Total job time:  388.77s(wall), 764.99s(cpu)
        *  Thank you very much for using Q-Chem.  Have a nice day.  *
