 Q-Chem 5.1, Q-Chem, Inc., Pleasanton, CA (2018)
 Q-Chem 5.1.2 for Intel X86 EM64T Linux

User input:
--------------------------------------------------------------
$molecule
0 1
--
0 1
O     2.682746157     0.252087281     0.000000000
H     3.094283083     1.118876774     0.000000000
H     3.423599950    -0.357576759     0.000000000
--
0 1
Si    -2.037494733    -0.135289477     0.000000000
H    -1.520272231    -0.813033774    -1.208291248
H    -1.520272231    -0.813033774     1.208291248
H    -1.597756898     1.277891940     0.000000000
C    -3.919884948    -0.201534759     0.000000000
H    -4.327252708     0.292462476     0.880759883
H    -4.272607700    -1.231771253     0.000000000
H    -4.327252708     0.292462476    -0.880759883
$end

$rem
BASIS = aug-cc-pVTZ
JOB_TYPE  =  BSSE
METHOD  =  MP2
SCF_CONVERGENCE  =  7
SCF_MAX_CYCLES  =  200
$end

--------------------------------------------------------------

             Standard Nuclear Orientation (Angstroms)
    I     Atom           X                Y                Z
 ----------------------------------------------------------------
    1      O       3.8499737458     0.0006441575    -0.0000000000
    2      H       4.3252243452     0.8342049137    -0.0000000000
    3      H       4.5431247625    -0.6627533496     0.0000000000
    4      Si     -0.8860206558    -0.0323988466     0.0000000000
    5      H      -0.4209687279    -0.7469498616    -1.2082912480
    6      H      -0.4209687279    -0.7469498616     1.2082912480
    7      H      -0.3417580344     1.3439111766    -0.0000000000
    8      C      -2.7680898515     0.0424135961    -0.0000000000
    9      H      -3.1373461244     0.5655116414     0.8807598830
   10      H      -3.1969230454    -0.9585372843     0.0000000000
   11      H      -3.1373461244     0.5655116414    -0.8807598830
 ----------------------------------------------------------------

    7    -406.3834713064      4.38E-08 Convergence criterion met
 Total energy in the final basis set = -406.38347131
        MP2         total energy =                  -406.97591599 au

             Orbital Energies (a.u.) and Symmetries
 --------------------------------------------------------------

 Alpha MOs, Restricted
 -- Occupied --
-68.758 -20.567 -11.200  -6.107  -4.213  -4.213  -4.212  -1.352
  1 A'    2 A'    3 A'    4 A'    1 A"    5 A'    6 A'    7 A'
 -0.941  -0.715  -0.691  -0.585  -0.557  -0.557  -0.510  -0.462
  8 A'    9 A'   10 A'   11 A'    2 A"   12 A'    3 A"    4 A"
 -0.462  -0.444
 13 A'   14 A'

 Beta MOs, Restricted
 -- Occupied --
-68.758 -20.567 -11.200  -6.107  -4.213  -4.213  -4.212  -1.352
  1 A'    2 A'    3 A'    4 A'    1 A"    5 A'    6 A'    7 A'
 -0.941  -0.715  -0.691  -0.585  -0.557  -0.557  -0.510  -0.462
  8 A'    9 A'   10 A'   11 A'    2 A"   12 A'    3 A"    4 A"
 -0.462  -0.444
 13 A'   14 A'

          Ground-State Mulliken Net Atomic Charges

     Atom                 Charge (a.u.)
  ----------------------------------------
      1 O                    -0.453186
      2 H                     0.226929
      3 H                     0.225962
      4 Si                    1.276551
      5 H                    -0.352729
      6 H                    -0.352729
      7 H                    -0.356268
      8 C                    -1.049488
      9 H                     0.278309
     10 H                     0.278341
     11 H                     0.278309
  ----------------------------------------
  Sum of atomic charges =     0.000000

                    Cartesian Multipole Moments
 -----------------------------------------------------------------
    Charge (ESU x 10^10)
                 0.0000
    Dipole Moment (Debye)
         X       1.5554      Y       0.2876      Z       0.0000
       Tot       1.5818
    Quadrupole Moments (Debye-Ang)
        XX     -12.7149     XY       0.8874     YY     -27.6208
        XZ       0.0000     YZ       0.0000     ZZ     -30.8667

 Total job time:  311.36s(wall), 581.72s(cpu)
        *  Thank you very much for using Q-Chem.  Have a nice day.  *
