 Q-Chem 5.1, Q-Chem, Inc., Pleasanton, CA (2018)
 Q-Chem 5.1.2 for Intel X86 EM64T Linux

User input:
--------------------------------------------------------------
$molecule
0 1
--
0 1
O     3.417192278    -0.078854989     0.000000000
H     3.621539415     0.858418795     0.000000000
H     2.457629173    -0.098605673     0.000000000
--
0 1
Si    -1.917929331    -0.029870643     0.000000000
H    -2.396708617    -0.746381011     1.203009641
H    -2.396708617    -0.746381011    -1.203009641
H    -2.492756587     1.334164347     0.000000000
C    -0.038357362     0.056701441     0.000000000
H     0.319001501     0.581015557    -0.885246536
H     0.381600793    -0.948695229     0.000000000
H     0.319001501     0.581015557     0.885246536
$end

$rem
BASIS = aug-cc-pVTZ
JOB_TYPE  =  BSSE
METHOD  =  MP2
SCF_CONVERGENCE  =  7
SCF_MAX_CYCLES  =  200
$end

--------------------------------------------------------------

             Standard Nuclear Orientation (Angstroms)
    I     Atom           X                Y                Z
 ----------------------------------------------------------------
    1      O       3.4142929313    -0.1157783430    -0.0000000000
    2      H       3.6279581363     0.8194152619     0.0000000000
    3      H       2.4545807826    -0.1259780264    -0.0000000000
    4      Si     -1.9200769296    -0.0136987886    -0.0000000000
    5      H      -2.4059635506    -0.7254086338     1.2030096410
    6      H      -2.4059635506    -0.7254086338    -1.2030096410
    7      H      -2.4813001997     1.3559895954     0.0000000000
    8      C      -0.0397364443     0.0541626253     0.0000000000
    9      H       0.3228229400     0.5748941704    -0.8852465360
   10      H       0.3701947319    -0.9553638711    -0.0000000000
   11      H       0.3228229400     0.5748941704     0.8852465360
 ----------------------------------------------------------------

    8    -406.3829962768      6.40E-08 Convergence criterion met
 Total energy in the final basis set = -406.38299628
        MP2         total energy =                  -406.97780105 au

             Orbital Energies (a.u.) and Symmetries
 --------------------------------------------------------------

 Alpha MOs, Restricted
 -- Occupied --
-68.775 -20.563 -11.222  -6.124  -4.230  -4.230  -4.230  -1.349
  1 A'    2 A'    3 A'    4 A'    1 A"    5 A'    6 A'    7 A'
 -0.965  -0.715  -0.704  -0.583  -0.580  -0.580  -0.506  -0.478
  8 A'    9 A'   10 A'   11 A'    2 A"   12 A'    3 A"   13 A'
 -0.478  -0.465
  4 A"   14 A'

 Beta MOs, Restricted
 -- Occupied --
-68.775 -20.563 -11.222  -6.124  -4.230  -4.230  -4.230  -1.349
  1 A'    2 A'    3 A'    4 A'    1 A"    5 A'    6 A'    7 A'
 -0.965  -0.715  -0.704  -0.583  -0.580  -0.580  -0.506  -0.478
  8 A'    9 A'   10 A'   11 A'    2 A"   12 A'    3 A"   13 A'
 -0.478  -0.465
  4 A"   14 A'

          Ground-State Mulliken Net Atomic Charges

     Atom                 Charge (a.u.)
  ----------------------------------------
      1 O                    -0.522474
      2 H                     0.194013
      3 H                     0.326151
      4 Si                    1.318913
      5 H                    -0.376101
      6 H                    -0.376101
      7 H                    -0.389994
      8 C                    -1.012482
      9 H                     0.280642
     10 H                     0.276791
     11 H                     0.280642
  ----------------------------------------
  Sum of atomic charges =     0.000000

                    Cartesian Multipole Moments
 -----------------------------------------------------------------
    Charge (ESU x 10^10)
                 0.0000
    Dipole Moment (Debye)
         X      -1.0000      Y       1.5312      Z      -0.0000
       Tot       1.8288
    Quadrupole Moments (Debye-Ang)
        XX     -38.9435     XY       6.1717     YY     -28.6607
        XZ      -0.0000     YZ      -0.0000     ZZ     -30.6612

 Total job time:  385.92s(wall), 749.76s(cpu)
        *  Thank you very much for using Q-Chem.  Have a nice day.  *
