 Q-Chem 5.1, Q-Chem, Inc., Pleasanton, CA (2018)
 Q-Chem 5.1.2 for Intel X86 EM64T Linux

User input:
--------------------------------------------------------------
$molecule
0 1
--
0 1
Si     2.014998435     0.321073490    -0.133289128
H     1.503542539     1.072357510     1.035552051
H     1.215154919    -0.917779499    -0.277040965
H     1.816801357     1.147049434    -1.346132733
C     3.832693717    -0.093902041     0.092465048
H     4.212738567    -0.647371106    -0.764407842
H     3.983063110    -0.702802282     0.982191073
H     4.425687573     0.812791426     0.199197617
--
0 1
Si    -2.202020762    -0.316741369    -0.006184365
H    -1.972251461    -1.486376668    -0.884507625
H    -1.679605332    -0.632265855     1.342815600
H    -1.435688759     0.830665812    -0.546199725
C    -4.032168135     0.097355375     0.074883549
H    -4.206290116     0.959030656     0.716885963
H    -4.600917536    -0.741232517     0.472912934
H    -4.420514256     0.329341008    -0.915271622
$end

$rem
BASIS = aug-cc-pVTZ
JOB_TYPE  =  BSSE
METHOD  =  MP2
SCF_CONVERGENCE  =  7
SCF_MAX_CYCLES  =  200
$end

--------------------------------------------------------------

             Standard Nuclear Orientation (Angstroms)
    I     Atom           X                Y                Z
 ----------------------------------------------------------------
    1      Si     -2.1219345103     0.2552543812     0.0463882643
    2      H      -1.6279457499     0.7786746988    -1.2475247119
    3      H      -1.2782768242    -0.8992149879     0.4344773695
    4      H      -1.9653616513     1.3122680406     1.0714321734
    5      C      -3.9209607300    -0.2649354114    -0.0953615790
    6      H      -4.2880970077    -0.6514962736     0.8537300377
    7      H      -4.0406818106    -1.0434493952    -0.8467374484
    8      H      -4.5460020415     0.5794085800    -0.3809017352
    9      Si      2.1167218218    -0.2345732554     0.0550892733
   10      H       1.9222860272    -1.2146512860     1.1477622295
   11      H       1.6185723175    -0.8309572813    -1.2052470522
   12      H       1.3037152848     0.9672087302     0.3553641419
   13      C       3.9310098104     0.2243803005    -0.1036818037
   14      H       4.0790519784     0.9475959125    -0.9036896467
   15      H       4.5338957345    -0.6542842023    -0.3264152298
   16      H       4.3015268981     0.6626923681     0.8213246425
 ----------------------------------------------------------------

    6    -660.6456938839      6.41E-08 Convergence criterion met
 Total energy in the final basis set = -660.64569388
        MP2         total energy =                  -661.29542401 au

                    Orbital Energies (a.u.)
 --------------------------------------------------------------

 Alpha MOs
 -- Occupied --
-68.764 -68.764 -11.207 -11.207  -6.113  -6.113  -4.219  -4.219
 -4.219  -4.219  -4.218  -4.218  -0.948  -0.948  -0.702  -0.692
 -0.564  -0.564  -0.563  -0.563  -0.469  -0.469  -0.467  -0.464
 -0.455  -0.447

          Ground-State Mulliken Net Atomic Charges

     Atom                 Charge (a.u.)
  ----------------------------------------
      1 Si                    1.342127
      2 H                    -0.346950
      3 H                    -0.316442
      4 H                    -0.363218
      5 C                    -1.142518
      6 H                     0.274102
      7 H                     0.287981
      8 H                     0.265447
      9 Si                    1.349932
     10 H                    -0.360817
     11 H                    -0.344894
     12 H                    -0.320860
     13 C                    -1.149169
     14 H                     0.286113
     15 H                     0.265486
     16 H                     0.273681
  ----------------------------------------
  Sum of atomic charges =    -0.000000

                    Cartesian Multipole Moments
 -----------------------------------------------------------------
    Charge (ESU x 10^10)
                -0.0000
    Dipole Moment (Debye)
         X       0.0004      Y      -0.0243      Z      -0.1135
       Tot       0.1161
    Quadrupole Moments (Debye-Ang)
        XX     -40.2486     XY       0.6398     YY     -46.6402
        XZ      -0.0087     YZ      -0.0016     ZZ     -46.5440

 Total job time:  1700.36s(wall), 3468.34s(cpu)
        *  Thank you very much for using Q-Chem.  Have a nice day.  *
