 Q-Chem 5.1, Q-Chem, Inc., Pleasanton, CA (2018)
 Q-Chem 5.1.2 for Intel X86 EM64T Linux

User input:
--------------------------------------------------------------
$molecule
0 1
--
0 1
O     2.682746157     0.252087281     0.000000000
H     3.094283083     1.118876774     0.000000000
H     3.423599950    -0.357576759     0.000000000
--
0 1
Si    -3.555480466    -0.254392152     0.000000000
H    -3.038257964    -0.932136450    -1.208291248
H    -3.038257964    -0.932136450     1.208291248
H    -3.115742631     1.158789264     0.000000000
C    -5.437870682    -0.320637435     0.000000000
H    -5.845238441     0.173359800     0.880759883
H    -5.790593433    -1.350873929     0.000000000
H    -5.845238441     0.173359800    -0.880759883
$end

$rem
BASIS = aug-cc-pVTZ
JOB_TYPE  =  BSSE
METHOD  =  MP2
SCF_CONVERGENCE  =  7
SCF_MAX_CYCLES  =  200
$end

--------------------------------------------------------------

             Standard Nuclear Orientation (Angstroms)
    I     Atom           X                Y                Z
 ----------------------------------------------------------------
    1      O       4.9496610751    -0.0025884281     0.0000000000
    2      H       5.4260841160     0.8303027729    -0.0000000000
    3      H       5.6418779320    -0.6669606184     0.0000000000
    4      Si     -1.3090231495    -0.0319923749     0.0000000000
    5      H      -0.8449771343    -0.7471970630    -1.2082912480
    6      H      -0.8449771343    -0.7471970630     1.2082912480
    7      H      -0.7628244469     1.3435504472    -0.0000000000
    8      C      -3.1909852137     0.0454682720    -0.0000000000
    9      H      -3.5595050634     0.5690853837     0.8807598830
   10      H      -3.6212264306    -0.9548782019     0.0000000000
   11      H      -3.5595050634     0.5690853837    -0.8807598830
 ----------------------------------------------------------------

    6    -406.3833278254      5.92E-08 Convergence criterion met
 Total energy in the final basis set = -406.38332783
        MP2         total energy =                  -406.97557094 au

             Orbital Energies (a.u.) and Symmetries
 --------------------------------------------------------------

 Alpha MOs, Restricted
 -- Occupied --
-68.761 -20.567 -11.203  -6.110  -4.216  -4.216  -4.216  -1.352
  1 A'    2 A'    3 A'    4 A'    1 A"    5 A'    6 A'    7 A'
 -0.944  -0.715  -0.694  -0.585  -0.559  -0.559  -0.510  -0.466
  8 A'    9 A'   10 A'   11 A'    2 A"   12 A'    3 A"    4 A"
 -0.465  -0.447
 13 A'   14 A'

 Beta MOs, Restricted
 -- Occupied --
-68.761 -20.567 -11.203  -6.110  -4.216  -4.216  -4.216  -1.352
  1 A'    2 A'    3 A'    4 A'    1 A"    5 A'    6 A'    7 A'
 -0.944  -0.715  -0.694  -0.585  -0.559  -0.559  -0.510  -0.466
  8 A'    9 A'   10 A'   11 A'    2 A"   12 A'    3 A"    4 A"
 -0.465  -0.447
 13 A'   14 A'

          Ground-State Mulliken Net Atomic Charges

     Atom                 Charge (a.u.)
  ----------------------------------------
      1 O                    -0.450122
      2 H                     0.225237
      3 H                     0.224692
      4 Si                    1.269430
      5 H                    -0.352441
      6 H                    -0.352441
      7 H                    -0.355095
      8 C                    -1.044915
      9 H                     0.278422
     10 H                     0.278811
     11 H                     0.278422
  ----------------------------------------
  Sum of atomic charges =     0.000000

                    Cartesian Multipole Moments
 -----------------------------------------------------------------
    Charge (ESU x 10^10)
                 0.0000
    Dipole Moment (Debye)
         X       1.4689      Y       0.2932      Z      -0.0000
       Tot       1.4978
    Quadrupole Moments (Debye-Ang)
        XX      -7.8223     XY       1.1761     YY     -27.5850
        XZ       0.0000     YZ      -0.0000     ZZ     -30.8419

 Total job time:  250.99s(wall), 445.66s(cpu)
        *  Thank you very much for using Q-Chem.  Have a nice day.  *
