 Q-Chem 5.1, Q-Chem, Inc., Pleasanton, CA (2018)
 Q-Chem 5.1.2 for Intel X86 EM64T Linux

User input:
--------------------------------------------------------------
$molecule
0 1
--
0 1
O     2.682746157     0.252087281     0.000000000
H     3.094283083     1.118876774     0.000000000
H     3.423599950    -0.357576759     0.000000000
--
0 1
Si    -0.782780803    -0.036843369     0.000000000
H    -0.265558301    -0.714587667    -1.208291248
H    -0.265558301    -0.714587667     1.208291248
H    -0.343042968     1.376338048     0.000000000
C    -2.665171019    -0.103088652     0.000000000
H    -3.072538778     0.390908583     0.880759883
H    -3.017893771    -1.133325146     0.000000000
H    -3.072538778     0.390908583    -0.880759883
$end

$rem
BASIS = aug-cc-pVTZ
JOB_TYPE  =  BSSE
METHOD  =  MP2
SCF_CONVERGENCE  =  7
SCF_MAX_CYCLES  =  200
$end

--------------------------------------------------------------

             Standard Nuclear Orientation (Angstroms)
    I     Atom           X                Y                Z
 ----------------------------------------------------------------
    1      O       2.9410093783     0.0044223289    -0.0000000000
    2      H       3.4143135220     0.8390898400    -0.0000000000
    3      H       3.6357065837    -0.6573558644     0.0000000000
    4      Si     -0.5363455686    -0.0324640453     0.0000000000
    5      H      -0.0696274614    -0.7459278905    -1.2082912480
    6      H      -0.0696274614    -0.7459278905     1.2082912480
    7      H       0.0047038728     1.3451122985    -0.0000000000
    8      C      -2.4185842200     0.0379562768    -0.0000000000
    9      H      -2.7890601658     0.5601912171     0.8807598830
   10      H      -2.8450804703    -0.9639925851     0.0000000000
   11      H      -2.7890601658     0.5601912171    -0.8807598830
 ----------------------------------------------------------------

    7    -406.3837568538      7.82E-08 Convergence criterion met
 Total energy in the final basis set = -406.38375685
        MP2         total energy =                  -406.97746922 au

             Orbital Energies (a.u.) and Symmetries
 --------------------------------------------------------------

 Alpha MOs, Restricted
 -- Occupied --
-68.752 -20.570 -11.196  -6.101  -4.207  -4.207  -4.207  -1.355
  1 A'    2 A'    3 A'    4 A'    1 A"    5 A'    6 A'    7 A'
 -0.937  -0.718  -0.685  -0.589  -0.553  -0.553  -0.513  -0.456
  8 A'    9 A'   10 A'   11 A'    2 A"   12 A'    3 A"   13 A'
 -0.456  -0.438
  4 A"   14 A'

 Beta MOs, Restricted
 -- Occupied --
-68.752 -20.570 -11.196  -6.101  -4.207  -4.207  -4.207  -1.355
  1 A'    2 A'    3 A'    4 A'    1 A"    5 A'    6 A'    7 A'
 -0.937  -0.718  -0.685  -0.589  -0.553  -0.553  -0.513  -0.456
  8 A'    9 A'   10 A'   11 A'    2 A"   12 A'    3 A"   13 A'
 -0.456  -0.438
  4 A"   14 A'

          Ground-State Mulliken Net Atomic Charges

     Atom                 Charge (a.u.)
  ----------------------------------------
      1 O                    -0.404014
      2 H                     0.212196
      3 H                     0.196887
      4 Si                    1.306368
      5 H                    -0.335043
      6 H                    -0.335043
      7 H                    -0.347164
      8 C                    -1.119437
      9 H                     0.275619
     10 H                     0.274011
     11 H                     0.275619
  ----------------------------------------
  Sum of atomic charges =     0.000000

                    Cartesian Multipole Moments
 -----------------------------------------------------------------
    Charge (ESU x 10^10)
                 0.0000
    Dipole Moment (Debye)
         X       1.7806      Y       0.2741      Z      -0.0000
       Tot       1.8015
    Quadrupole Moments (Debye-Ang)
        XX     -16.6839     XY       0.6437     YY     -27.7398
        XZ      -0.0000     YZ       0.0000     ZZ     -30.9428

 Total job time:  359.99s(wall), 665.04s(cpu)
        *  Thank you very much for using Q-Chem.  Have a nice day.  *
