 Q-Chem 5.1, Q-Chem, Inc., Pleasanton, CA (2018)
 Q-Chem 5.1.2 for Intel X86 EM64T Linux

User input:
--------------------------------------------------------------
$molecule
0 1
--
0 1
Si     2.206519773     0.028225580     0.000619108
H     1.719687849     0.752119435    -1.196193955
H     1.720552923     0.738931435     1.205678115
H     1.620645936    -1.331752276    -0.006589851
C     4.082202750    -0.060760672    -0.000507565
H     4.444822828    -0.592187257     0.877602138
H     4.444224422    -0.582384122    -0.884721181
H     4.516939396     0.937214734     0.004896367
--
0 1
Si    -3.818392200    -0.011686731     0.002224503
H    -4.356802203     0.670373197    -1.197047940
H    -4.346444963     0.673315065     1.204418389
H    -4.313212965    -1.407566574     0.006059864
C    -1.940678943     0.022827011    -0.005899738
H    -1.541423517    -0.477963486     0.874488394
H    -1.548925315    -0.480332570    -0.888304356
H    -1.573712274     1.047912798    -0.008859978
$end

$rem
BASIS = aug-cc-pVTZ
JOB_TYPE  =  BSSE
METHOD  =  MP2
SCF_MAX_CYCLES  =  200
$end

--------------------------------------------------------------

             Standard Nuclear Orientation (Angstroms)
    I     Atom           X                Y                Z
 ----------------------------------------------------------------
    1      Si     -2.3782168705    -0.0327644375     0.0017497170
    2      H      -1.8903955531    -0.7833709424    -1.1780847546
    3      H      -1.8910439111    -0.7146961564     1.2228416220
    4      H      -1.7944260495     1.3275774498    -0.0369558081
    5      C      -4.2540339569     0.0533060018    -0.0011812513
    6      H      -4.6173804135     0.6043234610     0.8644649229
    7      H      -4.6169408244     0.5538080375    -0.8971615809
    8      H      -4.6872420327    -0.9449412586     0.0273360231
    9      Si      3.6466270831     0.0163799524     0.0016254305
   10      H       4.1859621442    -0.6923818529    -1.1816411770
   11      H       4.1758462802    -0.6398564881     1.2192534920
   12      H       4.1393110761     1.4127302408    -0.0268559795
   13      C       1.7689680611    -0.0211812637    -0.0054477062
   14      H       1.3690334166     0.4992049839     0.8631889920
   15      H       1.3763577122     0.4608582186    -0.8991889610
   16      H       1.4035705535    -1.0466213304     0.0153248895
 ----------------------------------------------------------------

    3    -660.6461471261      9.22E-06 Convergence criterion met
 Total energy in the final basis set = -660.64614713
        MP2         total energy =                  -661.29506499 au

                    Orbital Energies (a.u.)
 --------------------------------------------------------------

 Alpha MOs
 -- Occupied --
-68.767 -68.764 -11.209 -11.207  -6.116  -6.113  -4.222  -4.222
 -4.222  -4.219  -4.219  -4.219  -0.951  -0.948  -0.701  -0.697
 -0.566  -0.566  -0.564  -0.563  -0.470  -0.470  -0.467  -0.467
 -0.459  -0.450

          Ground-State Mulliken Net Atomic Charges

     Atom                 Charge (a.u.)
  ----------------------------------------
      1 Si                    1.254700
      2 H                    -0.334427
      3 H                    -0.334138
      4 H                    -0.334831
      5 C                    -1.110935
      6 H                     0.280729
      7 H                     0.280600
      8 H                     0.277945
      9 Si                    1.315923
     10 H                    -0.399497
     11 H                    -0.399422
     12 H                    -0.397316
     13 C                    -1.127513
     14 H                     0.341611
     15 H                     0.340796
     16 H                     0.345771
  ----------------------------------------
  Sum of atomic charges =    -0.000004

                    Cartesian Multipole Moments
 -----------------------------------------------------------------
    Charge (ESU x 10^10)
                -0.0000
    Dipole Moment (Debye)
         X      -1.4265      Y       0.0207      Z      -0.0042
       Tot       1.4266
    Quadrupole Moments (Debye-Ang)
        XX     -47.4993     XY      -0.1299     YY     -46.5568
        XZ      -0.0063     YZ      -0.0001     ZZ     -46.5582

 Total job time:  1331.28s(wall), 2715.42s(cpu)
        *  Thank you very much for using Q-Chem.  Have a nice day.  *
