 Q-Chem 5.1, Q-Chem, Inc., Pleasanton, CA (2018)
 Q-Chem 5.1.2 for Intel X86 EM64T Linux

User input:
--------------------------------------------------------------
$molecule
0 1
--
0 1
Si     2.014998435     0.321073490    -0.133289128
H     1.503542539     1.072357510     1.035552051
H     1.215154919    -0.917779499    -0.277040965
H     1.816801357     1.147049434    -1.346132733
C     3.832693717    -0.093902041     0.092465048
H     4.212738567    -0.647371106    -0.764407842
H     3.983063110    -0.702802282     0.982191073
H     4.425687573     0.812791426     0.199197617
--
0 1
Si    -2.756268782    -0.354931721     0.002104786
H    -2.526499481    -1.524567020    -0.876218474
H    -2.233853352    -0.670456208     1.351104751
H    -1.989936779     0.792475460    -0.537910574
C    -4.586416155     0.059165023     0.083172700
H    -4.760538136     0.920840304     0.725175114
H    -5.155165556    -0.779422870     0.481202085
H    -4.974762276     0.291150656    -0.906982471
$end

$rem
BASIS = aug-cc-pVTZ
JOB_TYPE  =  BSSE
METHOD  =  MP2
SCF_CONVERGENCE  =  7
SCF_MAX_CYCLES  =  200
$end

--------------------------------------------------------------

             Standard Nuclear Orientation (Angstroms)
    I     Atom           X                Y                Z
 ----------------------------------------------------------------
    1      Si     -2.4008924959     0.2521932734     0.0465408762
    2      H      -1.9096568804     0.7785848875    -1.2472148785
    3      H      -1.5514144406    -0.8981758971     0.4341086433
    4      H      -2.2495329291     1.3095848227     1.0719780245
    5      C      -4.1972978976    -0.2769661061    -0.0952468571
    6      H      -4.5624014701    -0.6657304560     0.8537288565
    7      H      -4.3131788859    -1.0557818928    -0.8469119583
    8      H      -4.8265961074     0.5643395432    -0.3804049977
    9      Si      2.3955854283    -0.2315776489     0.0549450971
   10      H       2.2061727382    -1.2130400067     1.1472577292
   11      H       1.9003195420    -0.8299694549    -1.2055760004
   12      H       1.5765841958     0.9659923562     0.3557567177
   13      C       4.2075320505     0.2365385926    -0.1038130522
   14      H       4.3518681110     0.9607962137    -0.9035554192
   15      H       4.8148005030    -0.6390026461    -0.3269396814
   16      H       4.5759296515     0.6763488672     0.8213287944
 ----------------------------------------------------------------

    6    -660.6462329796      7.67E-08 Convergence criterion met
 Total energy in the final basis set = -660.64623298
        MP2         total energy =                  -661.29461381 au

                    Orbital Energies (a.u.)
 --------------------------------------------------------------

 Alpha MOs
 -- Occupied --
-68.764 -68.764 -11.207 -11.207  -6.113  -6.113  -4.219  -4.219
 -4.219  -4.219  -4.219  -4.219  -0.948  -0.948  -0.699  -0.695
 -0.564  -0.564  -0.564  -0.564  -0.468  -0.467  -0.467  -0.466
 -0.455  -0.451

          Ground-State Mulliken Net Atomic Charges

     Atom                 Charge (a.u.)
  ----------------------------------------
      1 Si                    1.280237
      2 H                    -0.351678
      3 H                    -0.343577
      4 H                    -0.360381
      5 C                    -1.063992
      6 H                     0.280888
      7 H                     0.285316
      8 H                     0.273820
      9 Si                    1.271012
     10 H                    -0.357068
     11 H                    -0.348706
     12 H                    -0.342731
     13 C                    -1.062533
     14 H                     0.284582
     15 H                     0.274245
     16 H                     0.280566
  ----------------------------------------
  Sum of atomic charges =     0.000000

                    Cartesian Multipole Moments
 -----------------------------------------------------------------
    Charge (ESU x 10^10)
                 0.0000
    Dipole Moment (Debye)
         X       0.0021      Y      -0.0239      Z      -0.1151
       Tot       0.1176
    Quadrupole Moments (Debye-Ang)
        XX     -39.3936     XY       0.7775     YY     -46.6594
        XZ      -0.0104     YZ      -0.0007     ZZ     -46.5586

 Total job time:  1572.94s(wall), 3216.12s(cpu)
        *  Thank you very much for using Q-Chem.  Have a nice day.  *
