 Q-Chem 5.1, Q-Chem, Inc., Pleasanton, CA (2018)
 Q-Chem 5.1.2 for Intel X86 EM64T Linux

User input:
--------------------------------------------------------------
$molecule
0 1
--
0 1
Si     2.206519773     0.028225580     0.000619108
H     1.719687849     0.752119435    -1.196193955
H     1.720552923     0.738931435     1.205678115
H     1.620645936    -1.331752276    -0.006589851
C     4.082202750    -0.060760672    -0.000507565
H     4.444822828    -0.592187257     0.877602138
H     4.444224422    -0.582384122    -0.884721181
H     4.516939396     0.937214734     0.004896367
--
0 1
Si    -2.796257667    -0.011641101     0.002333599
H    -3.334667670     0.670418827    -1.196938844
H    -3.324310431     0.673360695     1.204527484
H    -3.291078432    -1.407520944     0.006168959
C    -0.918544411     0.022872641    -0.005790642
H    -0.519288984    -0.477917856     0.874597490
H    -0.526790783    -0.480286940    -0.888195260
H    -0.551577742     1.047958428    -0.008750882
$end

$rem
BASIS = aug-cc-pVTZ
JOB_TYPE  =  BSSE
METHOD  =  MP2
SCF_CONVERGENCE  =  8
SCF_MAX_CYCLES  =  200
$end

--------------------------------------------------------------

             Standard Nuclear Orientation (Angstroms)
    I     Atom           X                Y                Z
 ----------------------------------------------------------------
    1      Si     -1.8671322940    -0.0329822011     0.0018508213
    2      H      -1.3790158910    -0.7847961216    -1.1770924977
    3      H      -1.3794660357    -0.7131197802     1.2237461916
    4      H      -1.2840903120     1.3276296461    -0.0386132299
    5      C      -3.7429965116     0.0520574943    -0.0010022290
    6      H      -4.1065596344     0.6039578621     0.8639902718
    7      H      -4.1062654105     0.5512400943    -0.8975717312
    8      H      -4.1756550617    -0.9463903588     0.0288059641
    9      Si      3.1355516139     0.0172963986     0.0014193564
   10      H       3.6751585006    -0.6926489492    -1.1810135087
   11      H       3.6652496929    -0.6371272371     1.2198145998
   12      H       3.6274680673     1.4138795164    -0.0288565986
   13      C       1.2579127579    -0.0213016339    -0.0054211020
   14      H       0.8577785199     0.4999512582     0.8626038371
   15      H       0.8649507127     0.4594049670    -0.8997255098
   16      H       0.8930788960    -1.0469148256     0.0166697105
 ----------------------------------------------------------------

    8    -660.6372311057      9.99E-09 Convergence criterion met
 Total energy in the final basis set = -660.63723111
        MP2         total energy =                  -661.29195312 au

                    Orbital Energies (a.u.)
 --------------------------------------------------------------

 Alpha MOs
 -- Occupied --
-68.765 -68.764 -11.206 -11.206  -6.114  -6.113  -4.220  -4.220
 -4.220  -4.219  -4.219  -4.219  -0.953  -0.948  -0.710  -0.688
 -0.570  -0.569  -0.562  -0.562  -0.473  -0.473  -0.471  -0.463
 -0.462  -0.435

          Ground-State Mulliken Net Atomic Charges

     Atom                 Charge (a.u.)
  ----------------------------------------
      1 Si                    1.839205
      2 H                    -0.374762
      3 H                    -0.374640
      4 H                    -0.371330
      5 C                    -1.470783
      6 H                     0.253807
      7 H                     0.253904
      8 H                     0.246096
      9 Si                    1.238459
     10 H                    -0.392028
     11 H                    -0.391083
     12 H                    -0.386946
     13 C                    -1.058193
     14 H                     0.327687
     15 H                     0.327913
     16 H                     0.332693
  ----------------------------------------
  Sum of atomic charges =     0.000000

                    Cartesian Multipole Moments
 -----------------------------------------------------------------
    Charge (ESU x 10^10)
                 0.0000
    Dipole Moment (Debye)
         X      -1.2216      Y       0.0212      Z      -0.0048
       Tot       1.2218
    Quadrupole Moments (Debye-Ang)
        XX     -48.3193     XY      -0.0821     YY     -46.4994
        XZ      -0.0059     YZ       0.0004     ZZ     -46.4964

 Total job time:  2044.42s(wall), 4292.56s(cpu)
        *  Thank you very much for using Q-Chem.  Have a nice day.  *
