 Q-Chem 5.1, Q-Chem, Inc., Pleasanton, CA (2018)
 Q-Chem 5.1.2 for Intel X86 EM64T Linux

User input:
--------------------------------------------------------------
$molecule
0 1
--
0 1
Si     2.206519773     0.028225580     0.000619108
H     1.719687849     0.752119435    -1.196193955
H     1.720552923     0.738931435     1.205678115
H     1.620645936    -1.331752276    -0.006589851
C     4.082202750    -0.060760672    -0.000507565
H     4.444822828    -0.592187257     0.877602138
H     4.444224422    -0.582384122    -0.884721181
H     4.516939396     0.937214734     0.004896367
--
0 1
Si    -4.147091958    -0.011701404     0.002189420
H    -4.685501961     0.670358523    -1.197083023
H    -4.675144721     0.673300391     1.204383306
H    -4.641912723    -1.407581248     0.006024781
C    -2.269378701     0.022812337    -0.005934821
H    -1.870123274    -0.477978159     0.874453311
H    -1.877625073    -0.480347244    -0.888339439
H    -1.902412032     1.047898124    -0.008895061
$end

$rem
BASIS = aug-cc-pVTZ
JOB_TYPE  =  BSSE
METHOD  =  MP2
SCF_MAX_CYCLES  =  200
$end

--------------------------------------------------------------

             Standard Nuclear Orientation (Angstroms)
    I     Atom           X                Y                Z
 ----------------------------------------------------------------
    1      Si     -2.5425708667    -0.0326915581     0.0017213926
    2      H      -2.0548202894    -0.7830141147    -1.1783229196
    3      H      -2.0555148605    -0.7150464036     1.2226235646
    4      H      -1.9586018356     1.3275855554    -0.0365700679
    5      C      -4.4183766497     0.0536242728    -0.0012272524
    6      H      -4.7816711654     0.6044341067     0.8645728448
    7      H      -4.7811976850     0.5544374885    -0.8970684507
    8      H      -4.8517155023    -0.9445748619     0.0269860623
    9      Si      3.8109788549     0.0161407285     0.0016780239
   10      H       4.3502487088    -0.6923428341    -1.1817849176
   11      H       4.3400845274    -0.6405232999     1.2191248853
   12      H       4.3038455176     1.4124351076    -0.0263808059
   13      C       1.9333151156    -0.0211736285    -0.0054492458
   14      H       1.5334283497     0.4990088832     0.8633315141
   15      H       1.5407881410     0.4611802474    -0.8990574886
   16      H       1.5677834637    -1.0465721269     0.0150129368
 ----------------------------------------------------------------

    2    -660.6463315531      9.12E-06 Convergence criterion met
 Total energy in the final basis set = -660.64633155
        MP2         total energy =                  -661.29464782 au

                    Orbital Energies (a.u.)
 --------------------------------------------------------------

 Alpha MOs
 -- Occupied --
-68.767 -68.764 -11.209 -11.207  -6.116  -6.113  -4.222  -4.222
 -4.222  -4.219  -4.219  -4.219  -0.951  -0.948  -0.701  -0.697
 -0.566  -0.566  -0.564  -0.564  -0.470  -0.470  -0.467  -0.467
 -0.457  -0.452

          Ground-State Mulliken Net Atomic Charges

     Atom                 Charge (a.u.)
  ----------------------------------------
      1 Si                    1.263649
      2 H                    -0.345417
      3 H                    -0.345024
      4 H                    -0.345873
      5 C                    -1.084398
      6 H                     0.280830
      7 H                     0.280710
      8 H                     0.279174
      9 Si                    1.366420
     10 H                    -0.402229
     11 H                    -0.402076
     12 H                    -0.400960
     13 C                    -1.095892
     14 H                     0.316772
     15 H                     0.316011
     16 H                     0.318302
  ----------------------------------------
  Sum of atomic charges =    -0.000000

                    Cartesian Multipole Moments
 -----------------------------------------------------------------
    Charge (ESU x 10^10)
                -0.0000
    Dipole Moment (Debye)
         X      -1.4366      Y       0.0203      Z      -0.0041
       Tot       1.4368
    Quadrupole Moments (Debye-Ang)
        XX     -47.4469     XY      -0.1397     YY     -46.5587
        XZ      -0.0066     YZ      -0.0000     ZZ     -46.5602

 Total job time:  1228.13s(wall), 2424.13s(cpu)
        *  Thank you very much for using Q-Chem.  Have a nice day.  *
