 Q-Chem 5.1, Q-Chem, Inc., Pleasanton, CA (2018)
 Q-Chem 5.1.2 for Intel X86 EM64T Linux

User input:
--------------------------------------------------------------
$molecule
0 1
--
0 1
Si     2.014998435     0.321073490    -0.133289128
H     1.503542539     1.072357510     1.035552051
H     1.215154919    -0.917779499    -0.277040965
H     1.816801357     1.147049434    -1.346132733
C     3.832693717    -0.093902041     0.092465048
H     4.212738567    -0.647371106    -0.764407842
H     3.983063110    -0.702802282     0.982191073
H     4.425687573     0.812791426     0.199197617
--
0 1
Si    -2.007639979    -0.303347598    -0.009091460
H    -1.777870678    -1.472982898    -0.887414720
H    -1.485224549    -0.618872085     1.339908505
H    -1.241307976     0.844059582    -0.549106820
C    -3.837787352     0.110749145     0.071976453
H    -4.011909334     0.972424426     0.713978868
H    -4.406536753    -0.727838747     0.470005839
H    -4.226133474     0.342734779    -0.918178717
$end

$rem
BASIS = aug-cc-pVTZ
JOB_TYPE  =  BSSE
METHOD  =  MP2
SCF_CONVERGENCE  =  7
SCF_MAX_CYCLES  =  200
$end

--------------------------------------------------------------

             Standard Nuclear Orientation (Angstroms)
    I     Atom           X                Y                Z
 ----------------------------------------------------------------
    1      Si     -2.0240241643     0.2563373009     0.0463265516
    2      H      -1.5288920927     0.7785101005    -1.2476534764
    3      H      -1.1827977053    -0.8998300038     0.4346385104
    4      H      -1.8652803696     1.3131901016     1.0712024062
    5      C      -3.8241289355    -0.2601122093    -0.0954073315
    6      H      -4.1921093265    -0.6457479809     0.8537337155
    7      H      -3.9454490868    -1.0384979196    -0.8466595956
    8      H      -4.4473920381     0.5854900839    -0.3811107867
    9      Si      2.0188508419    -0.2356285951     0.0551473756
   10      H       1.8223237505    -1.2151177551     1.1479742162
   11      H       1.5195035548    -0.8311771766    -1.2051100041
   12      H       1.2083479731     0.9679005579     0.3551927756
   13      C       3.8341008222     0.2195033687    -0.1036289779
   14      H       3.9836859416     0.9422759328    -0.9037501987
   15      H       4.4351563318    -0.6604567871    -0.3261943042
   16      H       4.2054982601     0.6571920093     0.8213196167
 ----------------------------------------------------------------

    6    -660.6451278551      9.47E-08 Convergence criterion met
 Total energy in the final basis set = -660.64512786
        MP2         total energy =                  -661.29565846 au

                    Orbital Energies (a.u.)
 --------------------------------------------------------------

 Alpha MOs
 -- Occupied --
-68.764 -68.764 -11.206 -11.206  -6.112  -6.112  -4.219  -4.219
 -4.219  -4.219  -4.218  -4.218  -0.948  -0.948  -0.704  -0.690
 -0.563  -0.563  -0.563  -0.563  -0.471  -0.470  -0.468  -0.463
 -0.455  -0.445

          Ground-State Mulliken Net Atomic Charges

     Atom                 Charge (a.u.)
  ----------------------------------------
      1 Si                    1.415672
      2 H                    -0.352499
      3 H                    -0.313447
      4 H                    -0.370931
      5 C                    -1.196569
      6 H                     0.271078
      7 H                     0.286667
      8 H                     0.260509
      9 Si                    1.428080
     10 H                    -0.368921
     11 H                    -0.350569
     12 H                    -0.318667
     13 C                    -1.205683
     14 H                     0.284330
     15 H                     0.260372
     16 H                     0.270579
  ----------------------------------------
  Sum of atomic charges =     0.000000

                    Cartesian Multipole Moments
 -----------------------------------------------------------------
    Charge (ESU x 10^10)
                 0.0000
    Dipole Moment (Debye)
         X      -0.0005      Y      -0.0245      Z      -0.1119
       Tot       0.1145
    Quadrupole Moments (Debye-Ang)
        XX     -40.5909     XY       0.5901     YY     -46.6257
        XZ      -0.0083     YZ      -0.0022     ZZ     -46.5335

 Total job time:  1753.95s(wall), 3608.13s(cpu)
        *  Thank you very much for using Q-Chem.  Have a nice day.  *
