 Q-Chem 5.1, Q-Chem, Inc., Pleasanton, CA (2018)
 Q-Chem 5.1.2 for Intel X86 EM64T Linux

User input:
--------------------------------------------------------------
$molecule
0 1
Si     3.762272567     0.100944777     0.006072646
H     3.981291986     1.564414477     0.064186564
H     4.389924271    -0.416429655    -1.231422106
H     4.439607953    -0.519141536     1.167849490
C     1.925645521    -0.291305561     0.027271718
H     1.759401550    -1.366486120    -0.015128601
H     1.421772543     0.162315456    -0.824405717
H     1.458679937     0.087942478     0.934592371
Si    -3.459621067    -0.121180278     0.010805194
H    -3.689314388    -1.400082915    -0.699676567
H    -4.263073507     0.931775482    -0.651604987
H    -3.940062373    -0.268176703     1.403886291
C    -1.636023980     0.327279063    -0.013189144
H    -1.461642235     1.267098333     0.508061954
H    -1.277359391     0.436496879    -1.035278419
H    -1.039655679    -0.443622449     0.471483119
$end

$rem
BASIS = aug-cc-pVTZ
JOB_TYPE  =  SP
METHOD  =  MP2
SCF_MAX_CYCLES  =  200
$end

--------------------------------------------------------------

    6    -660.6445865389      3.42e-06  Convergence criterion met
 Total energy in the final basis set =     -660.6445865389
        MP2         total energy =                  -661.29452435 au
 Total job time:  467.89s(wall), 2773.15s(cpu)
        *  Thank you very much for using Q-Chem.  Have a nice day.  *
 Q-Chem 5.1, Q-Chem, Inc., Pleasanton, CA (2018)
 Q-Chem 5.1.2 for Intel X86 EM64T Linux

User input:
--------------------------------------------------------------

$molecule
0 1
Si     3.762272567     0.100944777     0.006072646
H     3.981291986     1.564414477     0.064186564
H     4.389924271    -0.416429655    -1.231422106
H     4.439607953    -0.519141536     1.167849490
C     1.925645521    -0.291305561     0.027271718
H     1.759401550    -1.366486120    -0.015128601
H     1.421772543     0.162315456    -0.824405717
H     1.458679937     0.087942478     0.934592371
@Si   -3.459621067    -0.121180278     0.010805194
@H    -3.689314388    -1.400082915    -0.699676567
@H    -4.263073507     0.931775482    -0.651604987
@H    -3.940062373    -0.268176703     1.403886291
@C    -1.636023980     0.327279063    -0.013189144
@H    -1.461642235     1.267098333     0.508061954
@H    -1.277359391     0.436496879    -1.035278419
@H    -1.039655679    -0.443622449     0.471483119
$end

$rem
BASIS = aug-cc-pVTZ
JOB_TYPE  =  SP
METHOD  =  MP2
SCF_MAX_CYCLES  =  200
$end

--------------------------------------------------------------

    6    -330.3231873513      2.48e-06  Convergence criterion met
 Total energy in the final basis set =     -330.3231873513
        MP2         total energy =                  -330.64700302 au
 Total job time:  438.12s(wall), 2619.72s(cpu)
        *  Thank you very much for using Q-Chem.  Have a nice day.  *
 Q-Chem 5.1, Q-Chem, Inc., Pleasanton, CA (2018)
 Q-Chem 5.1.2 for Intel X86 EM64T Linux

User input:
--------------------------------------------------------------

$molecule
0 1
@Si    3.762272567     0.100944777     0.006072646
@H     3.981291986     1.564414477     0.064186564
@H     4.389924271    -0.416429655    -1.231422106
@H     4.439607953    -0.519141536     1.167849490
@C     1.925645521    -0.291305561     0.027271718
@H     1.759401550    -1.366486120    -0.015128601
@H     1.421772543     0.162315456    -0.824405717
@H     1.458679937     0.087942478     0.934592371
Si   -3.459621067    -0.121180278     0.010805194
H    -3.689314388    -1.400082915    -0.699676567
H    -4.263073507     0.931775482    -0.651604987
H    -3.940062373    -0.268176703     1.403886291
C    -1.636023980     0.327279063    -0.013189144
H    -1.461642235     1.267098333     0.508061954
H    -1.277359391     0.436496879    -1.035278419
H    -1.039655679    -0.443622449     0.471483119
$end

$rem
BASIS = aug-cc-pVTZ
JOB_TYPE  =  SP
METHOD  =  MP2
SCF_MAX_CYCLES  =  200
$end

--------------------------------------------------------------

             Standard Nuclear Orientation (Angstroms)
    I     Atom           X                Y                Z
 ----------------------------------------------------------------
    1      GH      3.7622725670     0.1009447770     0.0060726460
    2      GH      3.9812919860     1.5644144770     0.0641865640
    3      GH      4.3899242710    -0.4164296550    -1.2314221060
    4      GH      4.4396079530    -0.5191415360     1.1678494900
    5      GH      1.9256455210    -0.2913055610     0.0272717180
    6      GH      1.7594015500    -1.3664861200    -0.0151286010
    7      GH      1.4217725430     0.1623154560    -0.8244057170
    8      GH      1.4586799370     0.0879424780     0.9345923710
    9      Si     -3.4596210670    -0.1211802780     0.0108051940
   10      H      -3.6893143880    -1.4000829150    -0.6996765670
   11      H      -4.2630735070     0.9317754820    -0.6516049870
   12      H      -3.9400623730    -0.2681767030     1.4038862910
   13      C      -1.6360239800     0.3272790630    -0.0131891440
   14      H      -1.4616422350     1.2670983330     0.5080619540
   15      H      -1.2773593910     0.4364968790    -1.0352784190
   16      H      -1.0396556790    -0.4436224490     0.4714831190
 ----------------------------------------------------------------

    6    -330.3231848352      2.48e-06  Convergence criterion met
 Total energy in the final basis set =     -330.3231848352
        MP2         total energy =                  -330.64699201 au

                    Orbital Energies (a.u.)
 --------------------------------------------------------------

 Alpha MOs
 -- Occupied --
-68.766 -11.208  -6.115  -4.221  -4.221  -4.220  -0.950  -0.699
 -0.565  -0.565  -0.469  -0.469  -0.455

          Ground-State Mulliken Net Atomic Charges

     Atom                 Charge (a.u.)
  ----------------------------------------
      1 GH                   -0.000172
      2 GH                   -0.000001
      3 GH                    0.000120
      4 GH                    0.000106
      5 GH                    0.001504
      6 GH                    0.002667
      7 GH                   -0.000706
      8 GH                   -0.000239
      9 Si                    1.288081
     10 H                    -0.376568
     11 H                    -0.395950
     12 H                    -0.388963
     13 C                    -1.070910
     14 H                     0.313216
     15 H                     0.308121
     16 H                     0.319691
  ----------------------------------------
  Sum of atomic charges =    -0.000004

                    Cartesian Multipole Moments
 -----------------------------------------------------------------
    Charge (ESU x 10^10)
                -0.0000
    Dipole Moment (Debye)
         X       0.6886      Y       0.1705      Z      -0.0100
       Tot       0.7095
    Quadrupole Moments (Debye-Ang)
        XX     -27.5658     XY      -0.5590     YY     -23.2915
        XZ       0.0348     YZ       0.0026     ZZ     -23.2813

 Total job time:  439.27s(wall), 2626.58s(cpu)
        *  Thank you very much for using Q-Chem.  Have a nice day.  *
