 Q-Chem 5.1, Q-Chem, Inc., Pleasanton, CA (2018)
 Q-Chem 5.1.2 for Intel X86 EM64T Linux

User input:
--------------------------------------------------------------
$molecule
0 1
Si     3.762272567     0.100944777     0.006072646
H     3.981291986     1.564414477     0.064186564
H     4.389924271    -0.416429655    -1.231422106
H     4.439607953    -0.519141536     1.167849490
C     1.925645521    -0.291305561     0.027271718
H     1.759401550    -1.366486120    -0.015128601
H     1.421772543     0.162315456    -0.824405717
H     1.458679937     0.087942478     0.934592371
Si    -4.055374244    -0.116461328     0.009838676
H    -4.285067564    -1.395363966    -0.700643085
H    -4.858826684     0.936494431    -0.652571506
H    -4.535815549    -0.263457754     1.402919773
C    -2.231777157     0.331998012    -0.014155663
H    -2.057395411     1.271817282     0.507095436
H    -1.873112568     0.441215828    -1.036244937
H    -1.635408856    -0.438903500     0.470516600
$end

$rem
BASIS = aug-cc-pVTZ
JOB_TYPE  =  SP
METHOD  =  MP2
SCF_MAX_CYCLES  =  200
$end

--------------------------------------------------------------

    6    -660.6460567542      3.46e-06  Convergence criterion met
 Total energy in the final basis set =     -660.6460567542
        MP2         total energy =                  -661.29442829 au
 Total job time:  444.28s(wall), 2631.61s(cpu)
        *  Thank you very much for using Q-Chem.  Have a nice day.  *
 Q-Chem 5.1, Q-Chem, Inc., Pleasanton, CA (2018)
 Q-Chem 5.1.2 for Intel X86 EM64T Linux

User input:
--------------------------------------------------------------

$molecule
0 1
Si     3.762272567     0.100944777     0.006072646
H     3.981291986     1.564414477     0.064186564
H     4.389924271    -0.416429655    -1.231422106
H     4.439607953    -0.519141536     1.167849490
C     1.925645521    -0.291305561     0.027271718
H     1.759401550    -1.366486120    -0.015128601
H     1.421772543     0.162315456    -0.824405717
H     1.458679937     0.087942478     0.934592371
@Si   -4.055374244    -0.116461328     0.009838676
@H    -4.285067564    -1.395363966    -0.700643085
@H    -4.858826684     0.936494431    -0.652571506
@H    -4.535815549    -0.263457754     1.402919773
@C    -2.231777157     0.331998012    -0.014155663
@H    -2.057395411     1.271817282     0.507095436
@H    -1.873112568     0.441215828    -1.036244937
@H    -1.635408856    -0.438903500     0.470516600
$end

$rem
BASIS = aug-cc-pVTZ
JOB_TYPE  =  SP
METHOD  =  MP2
SCF_MAX_CYCLES  =  200
$end

--------------------------------------------------------------

    6    -330.3231703283      2.48e-06  Convergence criterion met
 Total energy in the final basis set =     -330.3231703283
        MP2         total energy =                  -330.64688144 au
 Total job time:  409.70s(wall), 2450.12s(cpu)
        *  Thank you very much for using Q-Chem.  Have a nice day.  *
 Q-Chem 5.1, Q-Chem, Inc., Pleasanton, CA (2018)
 Q-Chem 5.1.2 for Intel X86 EM64T Linux

User input:
--------------------------------------------------------------

$molecule
0 1
@Si    3.762272567     0.100944777     0.006072646
@H     3.981291986     1.564414477     0.064186564
@H     4.389924271    -0.416429655    -1.231422106
@H     4.439607953    -0.519141536     1.167849490
@C     1.925645521    -0.291305561     0.027271718
@H     1.759401550    -1.366486120    -0.015128601
@H     1.421772543     0.162315456    -0.824405717
@H     1.458679937     0.087942478     0.934592371
Si   -4.055374244    -0.116461328     0.009838676
H    -4.285067564    -1.395363966    -0.700643085
H    -4.858826684     0.936494431    -0.652571506
H    -4.535815549    -0.263457754     1.402919773
C    -2.231777157     0.331998012    -0.014155663
H    -2.057395411     1.271817282     0.507095436
H    -1.873112568     0.441215828    -1.036244937
H    -1.635408856    -0.438903500     0.470516600
$end

$rem
BASIS = aug-cc-pVTZ
JOB_TYPE  =  SP
METHOD  =  MP2
SCF_MAX_CYCLES  =  200
$end

--------------------------------------------------------------

             Standard Nuclear Orientation (Angstroms)
    I     Atom           X                Y                Z
 ----------------------------------------------------------------
    1      GH      3.7622725670     0.1009447770     0.0060726460
    2      GH      3.9812919860     1.5644144770     0.0641865640
    3      GH      4.3899242710    -0.4164296550    -1.2314221060
    4      GH      4.4396079530    -0.5191415360     1.1678494900
    5      GH      1.9256455210    -0.2913055610     0.0272717180
    6      GH      1.7594015500    -1.3664861200    -0.0151286010
    7      GH      1.4217725430     0.1623154560    -0.8244057170
    8      GH      1.4586799370     0.0879424780     0.9345923710
    9      Si     -4.0553742440    -0.1164613280     0.0098386760
   10      H      -4.2850675640    -1.3953639660    -0.7006430850
   11      H      -4.8588266840     0.9364944310    -0.6525715060
   12      H      -4.5358155490    -0.2634577540     1.4029197730
   13      C      -2.2317771570     0.3319980120    -0.0141556630
   14      H      -2.0573954110     1.2718172820     0.5070954360
   15      H      -1.8731125680     0.4412158280    -1.0362449370
   16      H      -1.6354088560    -0.4389035000     0.4705166000
 ----------------------------------------------------------------

    6    -330.3231680606      2.48e-06  Convergence criterion met
 Total energy in the final basis set =     -330.3231680606
        MP2         total energy =                  -330.64687560 au

                    Orbital Energies (a.u.)
 --------------------------------------------------------------

 Alpha MOs
 -- Occupied --
-68.766 -11.208  -6.115  -4.221  -4.221  -4.220  -0.950  -0.699
 -0.565  -0.565  -0.469  -0.469  -0.455

          Ground-State Mulliken Net Atomic Charges

     Atom                 Charge (a.u.)
  ----------------------------------------
      1 GH                    0.000826
      2 GH                   -0.000005
      3 GH                    0.000072
      4 GH                    0.000085
      5 GH                    0.000938
      6 GH                    0.000026
      7 GH                   -0.001276
      8 GH                   -0.002001
      9 Si                    1.326223
     10 H                    -0.380047
     11 H                    -0.395134
     12 H                    -0.391532
     13 C                    -1.075557
     14 H                     0.301553
     15 H                     0.299809
     16 H                     0.316019
  ----------------------------------------
  Sum of atomic charges =    -0.000000

                    Cartesian Multipole Moments
 -----------------------------------------------------------------
    Charge (ESU x 10^10)
                -0.0000
    Dipole Moment (Debye)
         X       0.6886      Y       0.1706      Z      -0.0099
       Tot       0.7094
    Quadrupole Moments (Debye-Ang)
        XX     -28.3857     XY      -0.6573     YY     -23.2903
        XZ       0.0399     YZ       0.0021     ZZ     -23.2815

 Total job time:  431.86s(wall), 2581.70s(cpu)
        *  Thank you very much for using Q-Chem.  Have a nice day.  *
