 Q-Chem 5.1, Q-Chem, Inc., Pleasanton, CA (2018)
 Q-Chem 5.1.2 for Intel X86 EM64T Linux

User input:
--------------------------------------------------------------
$molecule
0 1
Si     3.762272567     0.100944777     0.006072646
H     3.981291986     1.564414477     0.064186564
H     4.389924271    -0.416429655    -1.231422106
H     4.439607953    -0.519141536     1.167849490
C     1.925645521    -0.291305561     0.027271718
H     1.759401550    -1.366486120    -0.015128601
H     1.421772543     0.162315456    -0.824405717
H     1.458679937     0.087942478     0.934592371
Si    -3.907140031    -0.117635489     0.010079163
H    -4.136833352    -1.396538126    -0.700402598
H    -4.710592472     0.935320271    -0.652331018
H    -4.387581337    -0.264631914     1.403160260
C    -2.083542944     0.330823852    -0.013915175
H    -1.909161199     1.270643121     0.507335923
H    -1.724878355     0.440041668    -1.036004450
H    -1.487174644    -0.440077660     0.470757087
$end

$rem
BASIS = aug-cc-pVTZ
JOB_TYPE  =  SP
METHOD  =  MP2
SCF_MAX_CYCLES  =  200
$end

--------------------------------------------------------------

    6    -660.6459049805      3.46e-06  Convergence criterion met
 Total energy in the final basis set =     -660.6459049805
        MP2         total energy =                  -661.29453933 au
 Total job time:  455.01s(wall), 2696.95s(cpu)
        *  Thank you very much for using Q-Chem.  Have a nice day.  *
 Q-Chem 5.1, Q-Chem, Inc., Pleasanton, CA (2018)
 Q-Chem 5.1.2 for Intel X86 EM64T Linux

User input:
--------------------------------------------------------------

$molecule
0 1
Si     3.762272567     0.100944777     0.006072646
H     3.981291986     1.564414477     0.064186564
H     4.389924271    -0.416429655    -1.231422106
H     4.439607953    -0.519141536     1.167849490
C     1.925645521    -0.291305561     0.027271718
H     1.759401550    -1.366486120    -0.015128601
H     1.421772543     0.162315456    -0.824405717
H     1.458679937     0.087942478     0.934592371
@Si   -3.907140031    -0.117635489     0.010079163
@H    -4.136833352    -1.396538126    -0.700402598
@H    -4.710592472     0.935320271    -0.652331018
@H    -4.387581337    -0.264631914     1.403160260
@C    -2.083542944     0.330823852    -0.013915175
@H    -1.909161199     1.270643121     0.507335923
@H    -1.724878355     0.440041668    -1.036004450
@H    -1.487174644    -0.440077660     0.470757087
$end

$rem
BASIS = aug-cc-pVTZ
JOB_TYPE  =  SP
METHOD  =  MP2
SCF_MAX_CYCLES  =  200
$end

--------------------------------------------------------------

    6    -330.3231733621      2.48e-06  Convergence criterion met
 Total energy in the final basis set =     -330.3231733621
        MP2         total energy =                  -330.64690325 au
 Total job time:  411.98s(wall), 2463.77s(cpu)
        *  Thank you very much for using Q-Chem.  Have a nice day.  *
 Q-Chem 5.1, Q-Chem, Inc., Pleasanton, CA (2018)
 Q-Chem 5.1.2 for Intel X86 EM64T Linux

User input:
--------------------------------------------------------------

$molecule
0 1
@Si    3.762272567     0.100944777     0.006072646
@H     3.981291986     1.564414477     0.064186564
@H     4.389924271    -0.416429655    -1.231422106
@H     4.439607953    -0.519141536     1.167849490
@C     1.925645521    -0.291305561     0.027271718
@H     1.759401550    -1.366486120    -0.015128601
@H     1.421772543     0.162315456    -0.824405717
@H     1.458679937     0.087942478     0.934592371
Si   -3.907140031    -0.117635489     0.010079163
H    -4.136833352    -1.396538126    -0.700402598
H    -4.710592472     0.935320271    -0.652331018
H    -4.387581337    -0.264631914     1.403160260
C    -2.083542944     0.330823852    -0.013915175
H    -1.909161199     1.270643121     0.507335923
H    -1.724878355     0.440041668    -1.036004450
H    -1.487174644    -0.440077660     0.470757087
$end

$rem
BASIS = aug-cc-pVTZ
JOB_TYPE  =  SP
METHOD  =  MP2
SCF_MAX_CYCLES  =  200
$end

--------------------------------------------------------------

             Standard Nuclear Orientation (Angstroms)
    I     Atom           X                Y                Z
 ----------------------------------------------------------------
    1      GH      3.7622725670     0.1009447770     0.0060726460
    2      GH      3.9812919860     1.5644144770     0.0641865640
    3      GH      4.3899242710    -0.4164296550    -1.2314221060
    4      GH      4.4396079530    -0.5191415360     1.1678494900
    5      GH      1.9256455210    -0.2913055610     0.0272717180
    6      GH      1.7594015500    -1.3664861200    -0.0151286010
    7      GH      1.4217725430     0.1623154560    -0.8244057170
    8      GH      1.4586799370     0.0879424780     0.9345923710
    9      Si     -3.9071400310    -0.1176354890     0.0100791630
   10      H      -4.1368333520    -1.3965381260    -0.7004025980
   11      H      -4.7105924720     0.9353202710    -0.6523310180
   12      H      -4.3875813370    -0.2646319140     1.4031602600
   13      C      -2.0835429440     0.3308238520    -0.0139151750
   14      H      -1.9091611990     1.2706431210     0.5073359230
   15      H      -1.7248783550     0.4400416680    -1.0360044500
   16      H      -1.4871746440    -0.4400776600     0.4707570870
 ----------------------------------------------------------------

    6    -330.3231712232      2.48e-06  Convergence criterion met
 Total energy in the final basis set =     -330.3231712232
        MP2         total energy =                  -330.64689664 au

                    Orbital Energies (a.u.)
 --------------------------------------------------------------

 Alpha MOs
 -- Occupied --
-68.766 -11.208  -6.115  -4.221  -4.221  -4.220  -0.950  -0.699
 -0.565  -0.565  -0.469  -0.469  -0.455

          Ground-State Mulliken Net Atomic Charges

     Atom                 Charge (a.u.)
  ----------------------------------------
      1 GH                    0.000784
      2 GH                   -0.000060
      3 GH                    0.000081
      4 GH                    0.000094
      5 GH                    0.001234
      6 GH                    0.000567
      7 GH                   -0.001336
      8 GH                   -0.001914
      9 Si                    1.314552
     10 H                    -0.379584
     11 H                    -0.394276
     12 H                    -0.390913
     13 C                    -1.077320
     14 H                     0.306132
     15 H                     0.302806
     16 H                     0.319151
  ----------------------------------------
  Sum of atomic charges =    -0.000000

                    Cartesian Multipole Moments
 -----------------------------------------------------------------
    Charge (ESU x 10^10)
                -0.0000
    Dipole Moment (Debye)
         X       0.6886      Y       0.1706      Z      -0.0100
       Tot       0.7095
    Quadrupole Moments (Debye-Ang)
        XX     -28.1817     XY      -0.6328     YY     -23.2906
        XZ       0.0386     YZ       0.0022     ZZ     -23.2815

 Total job time:  419.37s(wall), 2508.13s(cpu)
        *  Thank you very much for using Q-Chem.  Have a nice day.  *
