 Q-Chem 5.1, Q-Chem, Inc., Pleasanton, CA (2018)
 Q-Chem 5.1.2 for Intel X86 EM64T Linux

User input:
--------------------------------------------------------------
$molecule
0 1
--
0 1
O     3.417192278    -0.078854989     0.000000000
H     3.621539415     0.858418795     0.000000000
H     2.457629173    -0.098605673     0.000000000
--
0 1
Si    -2.038865324    -0.029218307     0.000000000
H    -2.517644610    -0.745728675     1.203009641
H    -2.517644610    -0.745728675    -1.203009641
H    -2.613692579     1.334816683     0.000000000
C    -0.159293355     0.057353777     0.000000000
H     0.198065509     0.581667893    -0.885246536
H     0.260664800    -0.948042893     0.000000000
H     0.198065509     0.581667893     0.885246536
$end

$rem
BASIS = aug-cc-pVTZ
JOB_TYPE  =  BSSE
METHOD  =  MP2
SCF_CONVERGENCE  =  7
SCF_MAX_CYCLES  =  200
$end

--------------------------------------------------------------

             Standard Nuclear Orientation (Angstroms)
    I     Atom           X                Y                Z
 ----------------------------------------------------------------
    1      O       3.5016842177    -0.1153825300     0.0000000000
    2      H       3.7148857072     0.8199168998    -0.0000000000
    3      H       2.5419772441    -0.1260580581     0.0000000000
    4      Si     -1.9536600172    -0.0141519251     0.0000000000
    5      H      -2.4391936974    -0.7261025958     1.2030096410
    6      H      -2.4391936974    -0.7261025958    -1.2030096410
    7      H      -2.5155623383     1.3552580240    -0.0000000000
    8      C      -0.0733534101     0.0546417938    -0.0000000000
    9      H       0.2889477406     0.5755530397    -0.8852465360
   10      H       0.3370782606    -0.9546813257     0.0000000000
   11      H       0.2889477406     0.5755530397     0.8852465360
 ----------------------------------------------------------------

    8    -406.3833999811      4.73E-08 Convergence criterion met
 Total energy in the final basis set = -406.38339998
        MP2         total energy =                  -406.97777002 au

             Orbital Energies (a.u.) and Symmetries
 --------------------------------------------------------------

 Alpha MOs, Restricted
 -- Occupied --
-68.775 -20.564 -11.222  -6.123  -4.229  -4.229  -4.229  -1.350
  1 A'    2 A'    3 A'    4 A'    1 A"    5 A'    6 A'    7 A'
 -0.964  -0.715  -0.705  -0.584  -0.579  -0.579  -0.507  -0.477
  8 A'    9 A'   10 A'   11 A'    2 A"   12 A'    3 A"    4 A"
 -0.477  -0.464
 13 A'   14 A'

 Beta MOs, Restricted
 -- Occupied --
-68.775 -20.564 -11.222  -6.123  -4.229  -4.229  -4.229  -1.350
  1 A'    2 A'    3 A'    4 A'    1 A"    5 A'    6 A'    7 A'
 -0.964  -0.715  -0.705  -0.584  -0.579  -0.579  -0.507  -0.477
  8 A'    9 A'   10 A'   11 A'    2 A"   12 A'    3 A"    4 A"
 -0.477  -0.464
 13 A'   14 A'

          Ground-State Mulliken Net Atomic Charges

     Atom                 Charge (a.u.)
  ----------------------------------------
      1 O                    -0.514393
      2 H                     0.196115
      3 H                     0.314859
      4 Si                    1.323003
      5 H                    -0.377922
      6 H                    -0.377922
      7 H                    -0.391668
      8 C                    -1.028303
      9 H                     0.286432
     10 H                     0.283369
     11 H                     0.286432
  ----------------------------------------
  Sum of atomic charges =     0.000000

                    Cartesian Multipole Moments
 -----------------------------------------------------------------
    Charge (ESU x 10^10)
                 0.0000
    Dipole Moment (Debye)
         X      -0.9601      Y       1.5328      Z      -0.0000
       Tot       1.8086
    Quadrupole Moments (Debye-Ang)
        XX     -39.1307     XY       6.3053     YY     -28.6764
        XZ       0.0000     YZ       0.0000     ZZ     -30.6814

 Total job time:  371.46s(wall), 727.06s(cpu)
        *  Thank you very much for using Q-Chem.  Have a nice day.  *
