 Q-Chem 5.1, Q-Chem, Inc., Pleasanton, CA (2018)
 Q-Chem 5.1.2 for Intel X86 EM64T Linux

User input:
--------------------------------------------------------------
$molecule
0 1
--
0 1
Si     2.206519773     0.028225580     0.000619108
H     1.719687849     0.752119435    -1.196193955
H     1.720552923     0.738931435     1.205678115
H     1.620645936    -1.331752276    -0.006589851
C     4.082202750    -0.060760672    -0.000507565
H     4.444822828    -0.592187257     0.877602138
H     4.444224422    -0.582384122    -0.884721181
H     4.516939396     0.937214734     0.004896367
--
0 1
Si    -3.316233789    -0.011664313     0.002278100
H    -3.854643792     0.670395614    -1.196994343
H    -3.844286553     0.673337482     1.204471986
H    -3.811054554    -1.407544157     0.006113461
C    -1.438520533     0.022849428    -0.005846141
H    -1.039265106    -0.477941068     0.874541991
H    -1.046766905    -0.480310153    -0.888250759
H    -1.071553864     1.047935215    -0.008806381
$end

$rem
BASIS = aug-cc-pVTZ
JOB_TYPE  =  BSSE
METHOD  =  MP2
SCF_CONVERGENCE  =  8
SCF_MAX_CYCLES  =  200
$end

--------------------------------------------------------------

             Standard Nuclear Orientation (Angstroms)
    I     Atom           X                Y                Z
 ----------------------------------------------------------------
    1      Si     -2.1271301513    -0.0328749469     0.0017968411
    2      H      -1.6391803493    -0.7840027721    -1.1776526595
    3      H      -1.6397433930    -0.7140310380     1.2232362908
    4      H      -1.5436643874     1.3275845670    -0.0376683862
    5      C      -4.0029677690     0.0527479886    -0.0011009743
    6      H      -4.3664085652     0.6041466500     0.8642628166
    7      H      -4.3660315435     0.5526796111    -0.8973361565
    8      H      -4.4359373061    -0.9455866704     0.0279739897
    9      Si      3.3955443646     0.0167938048     0.0015332978
   10      H       3.9349978155    -0.6924789358    -1.1813731320
   11      H       3.9249711050    -0.6386588878     1.2194932375
   12      H       3.8878951754     1.4132455809    -0.0277234007
   13      C       1.5178940285    -0.0212175683    -0.0054398157
   14      H       1.1178724533     0.4995428040     0.8629326009
   15      H       1.1251312576     0.4602456528    -0.8994246877
   16      H       1.1527411944    -1.0467330935     0.0159022821
 ----------------------------------------------------------------

    8    -660.6447593683      8.05E-09 Convergence criterion met
 Total energy in the final basis set = -660.64475937
        MP2         total energy =                  -661.29546483 au

                    Orbital Energies (a.u.)
 --------------------------------------------------------------

 Alpha MOs
 -- Occupied --
-68.767 -68.764 -11.209 -11.206  -6.115  -6.113  -4.221  -4.221
 -4.221  -4.219  -4.219  -4.219  -0.950  -0.949  -0.703  -0.694
 -0.567  -0.566  -0.563  -0.563  -0.471  -0.471  -0.466  -0.466
 -0.463  -0.445

          Ground-State Mulliken Net Atomic Charges

     Atom                 Charge (a.u.)
  ----------------------------------------
      1 Si                    1.474285
      2 H                    -0.350358
      3 H                    -0.350057
      4 H                    -0.349697
      5 C                    -1.263431
      6 H                     0.270143
      7 H                     0.270071
      8 H                     0.264884
      9 Si                    1.271218
     10 H                    -0.394990
     11 H                    -0.394588
     12 H                    -0.391870
     13 C                    -1.100344
     14 H                     0.346472
     15 H                     0.346188
     16 H                     0.352074
  ----------------------------------------
  Sum of atomic charges =    -0.000000

                    Cartesian Multipole Moments
 -----------------------------------------------------------------
    Charge (ESU x 10^10)
                -0.0000
    Dipole Moment (Debye)
         X      -1.3793      Y       0.0215      Z      -0.0044
       Tot       1.3795
    Quadrupole Moments (Debye-Ang)
        XX     -47.7088     XY      -0.1113     YY     -46.5424
        XZ      -0.0060     YZ      -0.0000     ZZ     -46.5433

 Total job time:  1852.65s(wall), 3880.51s(cpu)
        *  Thank you very much for using Q-Chem.  Have a nice day.  *
