 Q-Chem 5.1, Q-Chem, Inc., Pleasanton, CA (2018)
 Q-Chem 5.1.2 for Intel X86 EM64T Linux

User input:
--------------------------------------------------------------
$molecule
0 1
--
0 1
O     2.682746157     0.252087281     0.000000000
H     3.094283083     1.118876774     0.000000000
H     3.423599950    -0.357576759     0.000000000
--
0 1
Si    -0.456816672    -0.011267898     0.000000000
H     0.060405830    -0.689012196    -1.208291248
H     0.060405830    -0.689012196     1.208291248
H    -0.017078837     1.401913519     0.000000000
C    -2.339206887    -0.077513181     0.000000000
H    -2.746574647     0.416484054     0.880759883
H    -2.691929639    -1.107749675     0.000000000
H    -2.746574647     0.416484054    -0.880759883
$end

$rem
BASIS = aug-cc-pVTZ
JOB_TYPE  =  BSSE
METHOD  =  MP2
SCF_CONVERGENCE  =  7
SCF_MAX_CYCLES  =  200
$end

--------------------------------------------------------------

             Standard Nuclear Orientation (Angstroms)
    I     Atom           X                Y                Z
 ----------------------------------------------------------------
    1      O       2.7048671205     0.0056073112     0.0000000000
    2      H       3.1773880517     0.8407184632     0.0000000000
    3      H       3.4001848365    -0.6555188932    -0.0000000000
    4      Si     -0.4454930263    -0.0323617992    -0.0000000000
    5      H       0.0218941783    -0.7453875008    -1.2082912480
    6      H       0.0218941783    -0.7453875008     1.2082912480
    7      H       0.0942638683     1.3457214986     0.0000000000
    8      C      -2.3277969100     0.0362927577     0.0000000000
    9      H      -2.6987626040     0.5581799236     0.8807598830
   10      H      -2.7533530412    -0.9660557609    -0.0000000000
   11      H      -2.6987626040     0.5581799236    -0.8807598830
 ----------------------------------------------------------------

    8    -406.3830366495      3.02E-08 Convergence criterion met
 Total energy in the final basis set = -406.38303665
        MP2         total energy =                  -406.97773334 au

             Orbital Energies (a.u.) and Symmetries
 --------------------------------------------------------------

 Alpha MOs, Restricted
 -- Occupied --
-68.750 -20.571 -11.193  -6.098  -4.204  -4.204  -4.204  -1.358
  1 A'    2 A'    3 A'    4 A'    5 A'    1 A"    6 A'    7 A'
 -0.935  -0.720  -0.684  -0.591  -0.551  -0.551  -0.516  -0.454
  8 A'    9 A'   10 A'   11 A'    2 A"   12 A'    3 A"   13 A'
 -0.453  -0.435
  4 A"   14 A'

 Beta MOs, Restricted
 -- Occupied --
-68.750 -20.571 -11.193  -6.098  -4.204  -4.204  -4.204  -1.358
  1 A'    2 A'    3 A'    4 A'    5 A'    1 A"    6 A'    7 A'
 -0.935  -0.720  -0.684  -0.591  -0.551  -0.551  -0.516  -0.454
  8 A'    9 A'   10 A'   11 A'    2 A"   12 A'    3 A"   13 A'
 -0.453  -0.435
  4 A"   14 A'

          Ground-State Mulliken Net Atomic Charges

     Atom                 Charge (a.u.)
  ----------------------------------------
      1 O                    -0.389348
      2 H                     0.204896
      3 H                     0.175930
      4 Si                    1.331023
      5 H                    -0.328929
      6 H                    -0.328929
      7 H                    -0.347949
      8 C                    -1.140113
      9 H                     0.274333
     10 H                     0.274754
     11 H                     0.274333
  ----------------------------------------
  Sum of atomic charges =     0.000000

                    Cartesian Multipole Moments
 -----------------------------------------------------------------
    Charge (ESU x 10^10)
                 0.0000
    Dipole Moment (Debye)
         X       1.9173      Y       0.2673      Z      -0.0000
       Tot       1.9359
    Quadrupole Moments (Debye-Ang)
        XX     -17.6758     XY       0.5764     YY     -27.8137
        XZ       0.0000     YZ       0.0000     ZZ     -30.9853

 Total job time:  388.57s(wall), 750.50s(cpu)
        *  Thank you very much for using Q-Chem.  Have a nice day.  *
