 Q-Chem 5.1, Q-Chem, Inc., Pleasanton, CA (2018)
 Q-Chem 5.1.2 for Intel X86 EM64T Linux

User input:
--------------------------------------------------------------
$molecule
0 1
--
0 1
O     2.682746157     0.252087281     0.000000000
H     3.094283083     1.118876774     0.000000000
H     3.423599950    -0.357576759     0.000000000
--
0 1
Si    -0.290667740     0.001768313     0.000000000
H     0.226554762    -0.675975984    -1.208291248
H     0.226554762    -0.675975984     1.208291248
H     0.149070095     1.414949730     0.000000000
C    -2.173057956    -0.064476970     0.000000000
H    -2.580425715     0.429520265     0.880759883
H    -2.525780708    -1.094713464     0.000000000
H    -2.580425715     0.429520265    -0.880759883
$end

$rem
BASIS = aug-cc-pVTZ
JOB_TYPE  =  BSSE
METHOD  =  MP2
SCF_CONVERGENCE  =  7
SCF_MAX_CYCLES  =  200
$end

--------------------------------------------------------------

             Standard Nuclear Orientation (Angstroms)
    I     Atom           X                Y                Z
 ----------------------------------------------------------------
    1      O       2.5845014787     0.0062435821    -0.0000000000
    2      H       3.0565575069     0.8416176138    -0.0000000000
    3      H       3.2801870753    -0.6544955003     0.0000000000
    4      Si     -0.3991818281    -0.0322754211     0.0000000000
    5      H       0.0686021801    -0.7450408596    -1.2082912480
    6      H       0.0686021801    -0.7450408596     1.2082912480
    7      H       0.1398079302     1.3461080964    -0.0000000000
    8      C      -2.2815236350     0.0353314193    -0.0000000000
    9      H      -2.6527797572     0.5570120217     0.8807598830
   10      H      -2.7065217847    -0.9672538120     0.0000000000
   11      H      -2.6527797572     0.5570120217    -0.8807598830
 ----------------------------------------------------------------

    8    -406.3819707515      5.65E-08 Convergence criterion met
 Total energy in the final basis set = -406.38197075
        MP2         total energy =                  -406.97740058 au

             Orbital Energies (a.u.) and Symmetries
 --------------------------------------------------------------

 Alpha MOs, Restricted
 -- Occupied --
-68.749 -20.573 -11.192  -6.097  -4.203  -4.203  -4.203  -1.360
  1 A'    2 A'    3 A'    4 A'    5 A'    1 A"    6 A'    7 A'
 -0.934  -0.722  -0.684  -0.593  -0.550  -0.550  -0.518  -0.453
  8 A'    9 A'   10 A'   11 A'    2 A"   12 A'    3 A"   13 A'
 -0.450  -0.433
  4 A"   14 A'

 Beta MOs, Restricted
 -- Occupied --
-68.749 -20.573 -11.192  -6.097  -4.203  -4.203  -4.203  -1.360
  1 A'    2 A'    3 A'    4 A'    5 A'    1 A"    6 A'    7 A'
 -0.934  -0.722  -0.684  -0.593  -0.550  -0.550  -0.518  -0.453
  8 A'    9 A'   10 A'   11 A'    2 A"   12 A'    3 A"   13 A'
 -0.450  -0.433
  4 A"   14 A'

          Ground-State Mulliken Net Atomic Charges

     Atom                 Charge (a.u.)
  ----------------------------------------
      1 O                    -0.388557
      2 H                     0.202596
      3 H                     0.166901
      4 Si                    1.339492
      5 H                    -0.323112
      6 H                    -0.323112
      7 H                    -0.346637
      8 C                    -1.145799
      9 H                     0.271708
     10 H                     0.274813
     11 H                     0.271708
  ----------------------------------------
  Sum of atomic charges =    -0.000000

                    Cartesian Multipole Moments
 -----------------------------------------------------------------
    Charge (ESU x 10^10)
                -0.0000
    Dipole Moment (Debye)
         X       2.0164      Y       0.2632      Z      -0.0000
       Tot       2.0335
    Quadrupole Moments (Debye-Ang)
        XX     -18.1651     XY       0.5409     YY     -27.8670
        XZ      -0.0000     YZ       0.0000     ZZ     -31.0151

 Total job time:  395.01s(wall), 753.65s(cpu)
        *  Thank you very much for using Q-Chem.  Have a nice day.  *
