 Q-Chem 5.1, Q-Chem, Inc., Pleasanton, CA (2018)
 Q-Chem 5.1.2 for Intel X86 EM64T Linux

User input:
--------------------------------------------------------------
$molecule
0 1
--
0 1
O     2.682746157     0.252087281     0.000000000
H     3.094283083     1.118876774     0.000000000
H     3.423599950    -0.357576759     0.000000000
--
0 1
Si    -0.620731032    -0.024128783     0.000000000
H    -0.103508531    -0.701873080    -1.208291248
H    -0.103508531    -0.701873080     1.208291248
H    -0.180993198     1.389052634     0.000000000
C    -2.503121248    -0.090374065     0.000000000
H    -2.910489008     0.403623170     0.880759883
H    -2.855844000    -1.120610559     0.000000000
H    -2.910489008     0.403623170    -0.880759883
$end

$rem
BASIS = aug-cc-pVTZ
JOB_TYPE  =  BSSE
METHOD  =  MP2
SCF_CONVERGENCE  =  7
SCF_MAX_CYCLES  =  200
$end

--------------------------------------------------------------

             Standard Nuclear Orientation (Angstroms)
    I     Atom           X                Y                Z
 ----------------------------------------------------------------
    1      O       2.8236137287     0.0050006948     0.0000000000
    2      H       3.2965481071     0.8398777758     0.0000000000
    3      H       3.5186040028    -0.6564697150    -0.0000000000
    4      Si     -0.4911798272    -0.0324230172    -0.0000000000
    5      H      -0.0241457355    -0.7456800570    -1.2082912480
    6      H      -0.0241457355    -0.7456800570     1.2082912480
    7      H       0.0492593579     1.3453928512     0.0000000000
    8      C      -2.3734494868     0.0371635549     0.0000000000
    9      H      -2.7441567230     0.5592343405     0.8807598830
   10      H      -2.7995018786    -0.9649741267    -0.0000000000
   11      H      -2.7441567230     0.5592343405    -0.8807598830
 ----------------------------------------------------------------

    7    -406.3835487599      9.20E-08 Convergence criterion met
 Total energy in the final basis set = -406.38354876
        MP2         total energy =                  -406.97768811 au

             Orbital Energies (a.u.) and Symmetries
 --------------------------------------------------------------

 Alpha MOs, Restricted
 -- Occupied --
-68.751 -20.570 -11.195  -6.100  -4.206  -4.206  -4.205  -1.356
  1 A'    2 A'    3 A'    4 A'    5 A'    1 A"    6 A'    7 A'
 -0.936  -0.719  -0.684  -0.590  -0.552  -0.552  -0.514  -0.455
  8 A'    9 A'   10 A'   11 A'    2 A"   12 A'    3 A"   13 A'
 -0.454  -0.437
  4 A"   14 A'

 Beta MOs, Restricted
 -- Occupied --
-68.751 -20.570 -11.195  -6.100  -4.206  -4.206  -4.205  -1.356
  1 A'    2 A'    3 A'    4 A'    5 A'    1 A"    6 A'    7 A'
 -0.936  -0.719  -0.684  -0.590  -0.552  -0.552  -0.514  -0.455
  8 A'    9 A'   10 A'   11 A'    2 A"   12 A'    3 A"   13 A'
 -0.454  -0.437
  4 A"   14 A'

          Ground-State Mulliken Net Atomic Charges

     Atom                 Charge (a.u.)
  ----------------------------------------
      1 O                    -0.394055
      2 H                     0.208064
      3 H                     0.186307
      4 Si                    1.323328
      5 H                    -0.333344
      6 H                    -0.333344
      7 H                    -0.348467
      8 C                    -1.133466
      9 H                     0.275407
     10 H                     0.274163
     11 H                     0.275407
  ----------------------------------------
  Sum of atomic charges =     0.000000

                    Cartesian Multipole Moments
 -----------------------------------------------------------------
    Charge (ESU x 10^10)
                 0.0000
    Dipole Moment (Debye)
         X       1.8409      Y       0.2709      Z       0.0000
       Tot       1.8607
    Quadrupole Moments (Debye-Ang)
        XX     -17.1809     XY       0.6106     YY     -27.7725
        XZ       0.0000     YZ       0.0000     ZZ     -30.9618

 Total job time:  371.24s(wall), 703.28s(cpu)
        *  Thank you very much for using Q-Chem.  Have a nice day.  *
