 Q-Chem 5.1, Q-Chem, Inc., Pleasanton, CA (2018)
 Q-Chem 5.1.2 for Intel X86 EM64T Linux

User input:
--------------------------------------------------------------
$molecule
0 1
Si     3.762272567     0.100944777     0.006072646
H     3.981291986     1.564414477     0.064186564
H     4.389924271    -0.416429655    -1.231422106
H     4.439607953    -0.519141536     1.167849490
C     1.925645521    -0.291305561     0.027271718
H     1.759401550    -1.366486120    -0.015128601
H     1.421772543     0.162315456    -0.824405717
H     1.458679937     0.087942478     0.934592371
Si    -5.231343579    -0.107146498     0.007930845
H    -5.461036900    -1.386049136    -0.702550916
H    -6.034796019     0.945809261    -0.654479336
H    -5.711784885    -0.254142924     1.401011942
C    -3.407746492     0.341312842    -0.016063493
H    -3.233364747     1.281132112     0.505187605
H    -3.049081903     0.450530658    -1.038152768
H    -2.811378191    -0.429588670     0.468608770
$end

$rem
BASIS = aug-cc-pVTZ
JOB_TYPE  =  SP
METHOD  =  MP2
SCF_MAX_CYCLES  =  200
$end

--------------------------------------------------------------

    6    -660.6462968647      3.48e-06  Convergence criterion met
 Total energy in the final basis set =     -660.6462968647
        MP2         total energy =                  -661.29377755 au
 Total job time:  366.24s(wall), 2163.77s(cpu)
        *  Thank you very much for using Q-Chem.  Have a nice day.  *
 Q-Chem 5.1, Q-Chem, Inc., Pleasanton, CA (2018)
 Q-Chem 5.1.2 for Intel X86 EM64T Linux

User input:
--------------------------------------------------------------

$molecule
0 1
Si     3.762272567     0.100944777     0.006072646
H     3.981291986     1.564414477     0.064186564
H     4.389924271    -0.416429655    -1.231422106
H     4.439607953    -0.519141536     1.167849490
C     1.925645521    -0.291305561     0.027271718
H     1.759401550    -1.366486120    -0.015128601
H     1.421772543     0.162315456    -0.824405717
H     1.458679937     0.087942478     0.934592371
@Si   -5.231343579    -0.107146498     0.007930845
@H    -5.461036900    -1.386049136    -0.702550916
@H    -6.034796019     0.945809261    -0.654479336
@H    -5.711784885    -0.254142924     1.401011942
@C    -3.407746492     0.341312842    -0.016063493
@H    -3.233364747     1.281132112     0.505187605
@H    -3.049081903     0.450530658    -1.038152768
@H    -2.811378191    -0.429588670     0.468608770
$end

$rem
BASIS = aug-cc-pVTZ
JOB_TYPE  =  SP
METHOD  =  MP2
SCF_MAX_CYCLES  =  200
$end

--------------------------------------------------------------

    6    -330.3231615773      2.48e-06  Convergence criterion met
 Total energy in the final basis set =     -330.3231615773
        MP2         total energy =                  -330.64679506 au
 Total job time:  201.98s(wall), 1201.22s(cpu)
        *  Thank you very much for using Q-Chem.  Have a nice day.  *
 Q-Chem 5.1, Q-Chem, Inc., Pleasanton, CA (2018)
 Q-Chem 5.1.2 for Intel X86 EM64T Linux

User input:
--------------------------------------------------------------

$molecule
0 1
@Si    3.762272567     0.100944777     0.006072646
@H     3.981291986     1.564414477     0.064186564
@H     4.389924271    -0.416429655    -1.231422106
@H     4.439607953    -0.519141536     1.167849490
@C     1.925645521    -0.291305561     0.027271718
@H     1.759401550    -1.366486120    -0.015128601
@H     1.421772543     0.162315456    -0.824405717
@H     1.458679937     0.087942478     0.934592371
Si   -5.231343579    -0.107146498     0.007930845
H    -5.461036900    -1.386049136    -0.702550916
H    -6.034796019     0.945809261    -0.654479336
H    -5.711784885    -0.254142924     1.401011942
C    -3.407746492     0.341312842    -0.016063493
H    -3.233364747     1.281132112     0.505187605
H    -3.049081903     0.450530658    -1.038152768
H    -2.811378191    -0.429588670     0.468608770
$end

$rem
BASIS = aug-cc-pVTZ
JOB_TYPE  =  SP
METHOD  =  MP2
SCF_MAX_CYCLES  =  200
$end

--------------------------------------------------------------

             Standard Nuclear Orientation (Angstroms)
    I     Atom           X                Y                Z
 ----------------------------------------------------------------
    1      GH      3.7622725670     0.1009447770     0.0060726460
    2      GH      3.9812919860     1.5644144770     0.0641865640
    3      GH      4.3899242710    -0.4164296550    -1.2314221060
    4      GH      4.4396079530    -0.5191415360     1.1678494900
    5      GH      1.9256455210    -0.2913055610     0.0272717180
    6      GH      1.7594015500    -1.3664861200    -0.0151286010
    7      GH      1.4217725430     0.1623154560    -0.8244057170
    8      GH      1.4586799370     0.0879424780     0.9345923710
    9      Si     -5.2313435790    -0.1071464980     0.0079308450
   10      H      -5.4610369000    -1.3860491360    -0.7025509160
   11      H      -6.0347960190     0.9458092610    -0.6544793360
   12      H      -5.7117848850    -0.2541429240     1.4010119420
   13      C      -3.4077464920     0.3413128420    -0.0160634930
   14      H      -3.2333647470     1.2811321120     0.5051876050
   15      H      -3.0490819030     0.4505306580    -1.0381527680
   16      H      -2.8113781910    -0.4295886700     0.4686087700
 ----------------------------------------------------------------

    6    -330.3231615989      2.48e-06  Convergence criterion met
 Total energy in the final basis set =     -330.3231615989
        MP2         total energy =                  -330.64679410 au

                    Orbital Energies (a.u.)
 --------------------------------------------------------------

 Alpha MOs
 -- Occupied --
-68.766 -11.208  -6.115  -4.221  -4.221  -4.220  -0.950  -0.699
 -0.565  -0.565  -0.469  -0.469  -0.455

          Ground-State Mulliken Net Atomic Charges

     Atom                 Charge (a.u.)
  ----------------------------------------
      1 GH                   -0.000870
      2 GH                   -0.000019
      3 GH                   -0.000030
      4 GH                   -0.000031
      5 GH                    0.000869
      6 GH                   -0.000273
      7 GH                    0.000309
      8 GH                   -0.000209
      9 Si                    1.371030
     10 H                    -0.382876
     11 H                    -0.397454
     12 H                    -0.393152
     13 C                    -1.070379
     14 H                     0.282063
     15 H                     0.288664
     16 H                     0.302350
  ----------------------------------------
  Sum of atomic charges =    -0.000010

                    Cartesian Multipole Moments
 -----------------------------------------------------------------
    Charge (ESU x 10^10)
                -0.0000
    Dipole Moment (Debye)
         X       0.6883      Y       0.1705      Z      -0.0099
       Tot       0.7091
    Quadrupole Moments (Debye-Ang)
        XX     -30.0054     XY      -0.8512     YY     -23.2880
        XZ       0.0503     YZ       0.0019     ZZ     -23.2822

 Total job time:  194.23s(wall), 1157.60s(cpu)
        *  Thank you very much for using Q-Chem.  Have a nice day.  *
