 Q-Chem 5.1, Q-Chem, Inc., Pleasanton, CA (2018)
 Q-Chem 5.1.2 for Intel X86 EM64T Linux

User input:
--------------------------------------------------------------
$molecule
0 1
--
0 1
O     3.417192278    -0.078854989     0.000000000
H     3.621539415     0.858418795     0.000000000
H     2.457629173    -0.098605673     0.000000000
--
0 1
Si    -1.672617968    -0.031193867     0.000000000
H    -2.151397254    -0.747704235     1.203009641
H    -2.151397254    -0.747704235    -1.203009641
H    -2.247445223     1.332841123     0.000000000
C     0.206954001     0.055378216     0.000000000
H     0.564312865     0.579692333    -0.885246536
H     0.626912156    -0.950018454     0.000000000
H     0.564312865     0.579692333     0.885246536
$end

$rem
BASIS = aug-cc-pVTZ
JOB_TYPE  =  BSSE
METHOD  =  MP2
SCF_CONVERGENCE  =  7
SCF_MAX_CYCLES  =  200
$end

--------------------------------------------------------------

             Standard Nuclear Orientation (Angstroms)
    I     Atom           X                Y                Z
 ----------------------------------------------------------------
    1      O       3.2370161967    -0.1166029997    -0.0000000000
    2      H       3.4517050047     0.8183561514     0.0000000000
    3      H       2.2772934577    -0.1257521062    -0.0000000000
    4      Si     -1.8519569483    -0.0127172347    -0.0000000000
    5      H      -2.3386223676    -0.7238947666     1.2030096410
    6      H      -2.3386223676    -0.7238947666    -1.2030096410
    7      H      -2.4116805204     1.3575846845     0.0000000000
    8      C       0.0284566965     0.0530857799     0.0000000000
    9      H       0.3915858952     0.5734201301    -0.8852465360
   10      H       0.4372825258    -0.9568888522    -0.0000000000
   11      H       0.3915858952     0.5734201301     0.8852465360
 ----------------------------------------------------------------

    8    -406.3811506025      6.36E-08 Convergence criterion met
 Total energy in the final basis set = -406.38115060
        MP2         total energy =                  -406.97717429 au

             Orbital Energies (a.u.) and Symmetries
 --------------------------------------------------------------

 Alpha MOs, Restricted
 -- Occupied --
-68.776 -20.559 -11.224  -6.125  -4.231  -4.231  -4.231  -1.347
  1 A'    2 A'    3 A'    4 A'    1 A"    5 A'    6 A'    7 A'
 -0.969  -0.718  -0.701  -0.583  -0.583  -0.581  -0.503  -0.479
  8 A'    9 A'   10 A'   11 A'    2 A"   12 A'    3 A"   13 A'
 -0.479  -0.466
  4 A"   14 A'

 Beta MOs, Restricted
 -- Occupied --
-68.776 -20.559 -11.224  -6.125  -4.231  -4.231  -4.231  -1.347
  1 A'    2 A'    3 A'    4 A'    1 A"    5 A'    6 A'    7 A'
 -0.969  -0.718  -0.701  -0.583  -0.583  -0.581  -0.503  -0.479
  8 A'    9 A'   10 A'   11 A'    2 A"   12 A'    3 A"   13 A'
 -0.479  -0.466
  4 A"   14 A'

          Ground-State Mulliken Net Atomic Charges

     Atom                 Charge (a.u.)
  ----------------------------------------
      1 O                    -0.541303
      2 H                     0.187881
      3 H                     0.352093
      4 Si                    1.312002
      5 H                    -0.371246
      6 H                    -0.371246
      7 H                    -0.384249
      8 C                    -0.975351
      9 H                     0.266692
     10 H                     0.258036
     11 H                     0.266692
  ----------------------------------------
  Sum of atomic charges =     0.000000

                    Cartesian Multipole Moments
 -----------------------------------------------------------------
    Charge (ESU x 10^10)
                 0.0000
    Dipole Moment (Debye)
         X      -1.0990      Y       1.5274      Z      -0.0000
       Tot       1.8817
    Quadrupole Moments (Debye-Ang)
        XX     -38.6388     XY       5.8996     YY     -28.6177
        XZ       0.0000     YZ      -0.0000     ZZ     -30.6081

 Total job time:  397.76s(wall), 779.43s(cpu)
        *  Thank you very much for using Q-Chem.  Have a nice day.  *
