 Q-Chem 5.1, Q-Chem, Inc., Pleasanton, CA (2018)
 Q-Chem 5.1.2 for Intel X86 EM64T Linux

User input:
--------------------------------------------------------------
$molecule
0 1
Si     3.762272567     0.100944777     0.006072646
H     3.981291986     1.564414477     0.064186564
H     4.389924271    -0.416429655    -1.231422106
H     4.439607953    -0.519141536     1.167849490
C     1.925645521    -0.291305561     0.027271718
H     1.759401550    -1.366486120    -0.015128601
H     1.421772543     0.162315456    -0.824405717
H     1.458679937     0.087942478     0.934592371
Si    -3.609341984    -0.119994341     0.010562295
H    -3.839035305    -1.398896978    -0.699919466
H    -4.412794425     0.932961419    -0.651847887
H    -4.089783290    -0.266990767     1.403643392
C    -1.785744897     0.328464999    -0.013432043
H    -1.611363152     1.268284269     0.507819055
H    -1.427080308     0.437682815    -1.035521318
H    -1.189376597    -0.442436513     0.471240219
$end

$rem
BASIS = aug-cc-pVTZ
JOB_TYPE  =  SP
METHOD  =  MP2
SCF_MAX_CYCLES  =  200
$end

--------------------------------------------------------------

    6    -660.6452502496      3.44e-06  Convergence criterion met
 Total energy in the final basis set =     -660.6452502496
        MP2         total energy =                  -661.29464396 au
 Total job time:  465.75s(wall), 2760.76s(cpu)
        *  Thank you very much for using Q-Chem.  Have a nice day.  *
 Q-Chem 5.1, Q-Chem, Inc., Pleasanton, CA (2018)
 Q-Chem 5.1.2 for Intel X86 EM64T Linux

User input:
--------------------------------------------------------------

$molecule
0 1
Si     3.762272567     0.100944777     0.006072646
H     3.981291986     1.564414477     0.064186564
H     4.389924271    -0.416429655    -1.231422106
H     4.439607953    -0.519141536     1.167849490
C     1.925645521    -0.291305561     0.027271718
H     1.759401550    -1.366486120    -0.015128601
H     1.421772543     0.162315456    -0.824405717
H     1.458679937     0.087942478     0.934592371
@Si   -3.609341984    -0.119994341     0.010562295
@H    -3.839035305    -1.398896978    -0.699919466
@H    -4.412794425     0.932961419    -0.651847887
@H    -4.089783290    -0.266990767     1.403643392
@C    -1.785744897     0.328464999    -0.013432043
@H    -1.611363152     1.268284269     0.507819055
@H    -1.427080308     0.437682815    -1.035521318
@H    -1.189376597    -0.442436513     0.471240219
$end

$rem
BASIS = aug-cc-pVTZ
JOB_TYPE  =  SP
METHOD  =  MP2
SCF_MAX_CYCLES  =  200
$end

--------------------------------------------------------------

    6    -330.3231818373      2.48e-06  Convergence criterion met
 Total energy in the final basis set =     -330.3231818373
        MP2         total energy =                  -330.64696319 au
 Total job time:  431.84s(wall), 2582.58s(cpu)
        *  Thank you very much for using Q-Chem.  Have a nice day.  *
 Q-Chem 5.1, Q-Chem, Inc., Pleasanton, CA (2018)
 Q-Chem 5.1.2 for Intel X86 EM64T Linux

User input:
--------------------------------------------------------------

$molecule
0 1
@Si    3.762272567     0.100944777     0.006072646
@H     3.981291986     1.564414477     0.064186564
@H     4.389924271    -0.416429655    -1.231422106
@H     4.439607953    -0.519141536     1.167849490
@C     1.925645521    -0.291305561     0.027271718
@H     1.759401550    -1.366486120    -0.015128601
@H     1.421772543     0.162315456    -0.824405717
@H     1.458679937     0.087942478     0.934592371
Si   -3.609341984    -0.119994341     0.010562295
H    -3.839035305    -1.398896978    -0.699919466
H    -4.412794425     0.932961419    -0.651847887
H    -4.089783290    -0.266990767     1.403643392
C    -1.785744897     0.328464999    -0.013432043
H    -1.611363152     1.268284269     0.507819055
H    -1.427080308     0.437682815    -1.035521318
H    -1.189376597    -0.442436513     0.471240219
$end

$rem
BASIS = aug-cc-pVTZ
JOB_TYPE  =  SP
METHOD  =  MP2
SCF_MAX_CYCLES  =  200
$end

--------------------------------------------------------------

             Standard Nuclear Orientation (Angstroms)
    I     Atom           X                Y                Z
 ----------------------------------------------------------------
    1      GH      3.7622725670     0.1009447770     0.0060726460
    2      GH      3.9812919860     1.5644144770     0.0641865640
    3      GH      4.3899242710    -0.4164296550    -1.2314221060
    4      GH      4.4396079530    -0.5191415360     1.1678494900
    5      GH      1.9256455210    -0.2913055610     0.0272717180
    6      GH      1.7594015500    -1.3664861200    -0.0151286010
    7      GH      1.4217725430     0.1623154560    -0.8244057170
    8      GH      1.4586799370     0.0879424780     0.9345923710
    9      Si     -3.6093419840    -0.1199943410     0.0105622950
   10      H      -3.8390353050    -1.3988969780    -0.6999194660
   11      H      -4.4127944250     0.9329614190    -0.6518478870
   12      H      -4.0897832900    -0.2669907670     1.4036433920
   13      C      -1.7857448970     0.3284649990    -0.0134320430
   14      H      -1.6113631520     1.2682842690     0.5078190550
   15      H      -1.4270803080     0.4376828150    -1.0355213180
   16      H      -1.1893765970    -0.4424365130     0.4712402190
 ----------------------------------------------------------------

    6    -330.3231795070      2.48e-06  Convergence criterion met
 Total energy in the final basis set =     -330.3231795070
        MP2         total energy =                  -330.64695379 au

                    Orbital Energies (a.u.)
 --------------------------------------------------------------

 Alpha MOs
 -- Occupied --
-68.766 -11.208  -6.115  -4.221  -4.221  -4.220  -0.950  -0.699
 -0.565  -0.565  -0.469  -0.469  -0.455

          Ground-State Mulliken Net Atomic Charges

     Atom                 Charge (a.u.)
  ----------------------------------------
      1 GH                    0.000394
      2 GH                   -0.000066
      3 GH                    0.000104
      4 GH                    0.000101
      5 GH                    0.000935
      6 GH                    0.001801
      7 GH                   -0.000611
      8 GH                   -0.000878
      9 Si                    1.303978
     10 H                    -0.381082
     11 H                    -0.396145
     12 H                    -0.392166
     13 C                    -1.075654
     14 H                     0.311738
     15 H                     0.307421
     16 H                     0.320128
  ----------------------------------------
  Sum of atomic charges =    -0.000003

                    Cartesian Multipole Moments
 -----------------------------------------------------------------
    Charge (ESU x 10^10)
                -0.0000
    Dipole Moment (Debye)
         X       0.6886      Y       0.1706      Z      -0.0100
       Tot       0.7095
    Quadrupole Moments (Debye-Ang)
        XX     -27.7718     XY      -0.5837     YY     -23.2912
        XZ       0.0361     YZ       0.0024     ZZ     -23.2814

 Total job time:  427.92s(wall), 2559.15s(cpu)
        *  Thank you very much for using Q-Chem.  Have a nice day.  *
