 Q-Chem 5.1, Q-Chem, Inc., Pleasanton, CA (2018)
 Q-Chem 5.1.2 for Intel X86 EM64T Linux

User input:
--------------------------------------------------------------
$molecule
0 1
Si     3.762272567     0.100944777     0.006072646
H     3.981291986     1.564414477     0.064186564
H     4.389924271    -0.416429655    -1.231422106
H     4.439607953    -0.519141536     1.167849490
C     1.925645521    -0.291305561     0.027271718
H     1.759401550    -1.366486120    -0.015128601
H     1.421772543     0.162315456    -0.824405717
H     1.458679937     0.087942478     0.934592371
Si    -6.688570710    -0.095603831     0.005566717
H    -6.918264031    -1.374506468    -0.704915044
H    -7.492023150     0.957351929    -0.656843464
H    -7.169012016    -0.242600256     1.398647814
C    -4.864973623     0.352855509    -0.018427621
H    -4.690591878     1.292674779     0.502823477
H    -4.506309034     0.462073325    -1.040516896
H    -4.268605322    -0.418046002     0.466244641
$end

$rem
BASIS = aug-cc-pVTZ
JOB_TYPE  =  SP
METHOD  =  MP2
SCF_MAX_CYCLES  =  200
$end

--------------------------------------------------------------

    6    -660.6462892389      3.49e-06  Convergence criterion met
 Total energy in the final basis set =     -660.6462892389
        MP2         total energy =                  -661.29355429 au
 Total job time:  287.84s(wall), 1700.05s(cpu)
        *  Thank you very much for using Q-Chem.  Have a nice day.  *
 Q-Chem 5.1, Q-Chem, Inc., Pleasanton, CA (2018)
 Q-Chem 5.1.2 for Intel X86 EM64T Linux

User input:
--------------------------------------------------------------

$molecule
0 1
Si     3.762272567     0.100944777     0.006072646
H     3.981291986     1.564414477     0.064186564
H     4.389924271    -0.416429655    -1.231422106
H     4.439607953    -0.519141536     1.167849490
C     1.925645521    -0.291305561     0.027271718
H     1.759401550    -1.366486120    -0.015128601
H     1.421772543     0.162315456    -0.824405717
H     1.458679937     0.087942478     0.934592371
@Si   -6.688570710    -0.095603831     0.005566717
@H    -6.918264031    -1.374506468    -0.704915044
@H    -7.492023150     0.957351929    -0.656843464
@H    -7.169012016    -0.242600256     1.398647814
@C    -4.864973623     0.352855509    -0.018427621
@H    -4.690591878     1.292674779     0.502823477
@H    -4.506309034     0.462073325    -1.040516896
@H    -4.268605322    -0.418046002     0.466244641
$end

$rem
BASIS = aug-cc-pVTZ
JOB_TYPE  =  SP
METHOD  =  MP2
SCF_MAX_CYCLES  =  200
$end

--------------------------------------------------------------

    6    -330.3231516881      2.48e-06  Convergence criterion met
 Total energy in the final basis set =     -330.3231516881
        MP2         total energy =                  -330.64675860 au
 Total job time:  157.24s(wall), 936.05s(cpu)
        *  Thank you very much for using Q-Chem.  Have a nice day.  *
 Q-Chem 5.1, Q-Chem, Inc., Pleasanton, CA (2018)
 Q-Chem 5.1.2 for Intel X86 EM64T Linux

User input:
--------------------------------------------------------------

$molecule
0 1
@Si    3.762272567     0.100944777     0.006072646
@H     3.981291986     1.564414477     0.064186564
@H     4.389924271    -0.416429655    -1.231422106
@H     4.439607953    -0.519141536     1.167849490
@C     1.925645521    -0.291305561     0.027271718
@H     1.759401550    -1.366486120    -0.015128601
@H     1.421772543     0.162315456    -0.824405717
@H     1.458679937     0.087942478     0.934592371
Si   -6.688570710    -0.095603831     0.005566717
H    -6.918264031    -1.374506468    -0.704915044
H    -7.492023150     0.957351929    -0.656843464
H    -7.169012016    -0.242600256     1.398647814
C    -4.864973623     0.352855509    -0.018427621
H    -4.690591878     1.292674779     0.502823477
H    -4.506309034     0.462073325    -1.040516896
H    -4.268605322    -0.418046002     0.466244641
$end

$rem
BASIS = aug-cc-pVTZ
JOB_TYPE  =  SP
METHOD  =  MP2
SCF_MAX_CYCLES  =  200
$end

--------------------------------------------------------------

             Standard Nuclear Orientation (Angstroms)
    I     Atom           X                Y                Z
 ----------------------------------------------------------------
    1      GH      3.7622725670     0.1009447770     0.0060726460
    2      GH      3.9812919860     1.5644144770     0.0641865640
    3      GH      4.3899242710    -0.4164296550    -1.2314221060
    4      GH      4.4396079530    -0.5191415360     1.1678494900
    5      GH      1.9256455210    -0.2913055610     0.0272717180
    6      GH      1.7594015500    -1.3664861200    -0.0151286010
    7      GH      1.4217725430     0.1623154560    -0.8244057170
    8      GH      1.4586799370     0.0879424780     0.9345923710
    9      Si     -6.6885707100    -0.0956038310     0.0055667170
   10      H      -6.9182640310    -1.3745064680    -0.7049150440
   11      H      -7.4920231500     0.9573519290    -0.6568434640
   12      H      -7.1690120160    -0.2426002560     1.3986478140
   13      C      -4.8649736230     0.3528555090    -0.0184276210
   14      H      -4.6905918780     1.2926747790     0.5028234770
   15      H      -4.5063090340     0.4620733250    -1.0405168960
   16      H      -4.2686053220    -0.4180460020     0.4662446410
 ----------------------------------------------------------------

    6    -330.3231525044      2.48e-06  Convergence criterion met
 Total energy in the final basis set =     -330.3231525044
        MP2         total energy =                  -330.64675865 au

                    Orbital Energies (a.u.)
 --------------------------------------------------------------

 Alpha MOs
 -- Occupied --
-68.766 -11.208  -6.115  -4.221  -4.221  -4.220  -0.950  -0.699
 -0.565  -0.565  -0.469  -0.469  -0.455

          Ground-State Mulliken Net Atomic Charges

     Atom                 Charge (a.u.)
  ----------------------------------------
      1 GH                   -0.000034
      2 GH                   -0.000005
      3 GH                    0.000001
      4 GH                    0.000001
      5 GH                   -0.000123
      6 GH                    0.000012
      7 GH                   -0.000089
      8 GH                   -0.000104
      9 Si                    1.321976
     10 H                    -0.374489
     11 H                    -0.378153
     12 H                    -0.375575
     13 C                    -1.052405
     14 H                     0.281781
     15 H                     0.285445
     16 H                     0.291757
  ----------------------------------------
  Sum of atomic charges =    -0.000003

                    Cartesian Multipole Moments
 -----------------------------------------------------------------
    Charge (ESU x 10^10)
                -0.0000
    Dipole Moment (Debye)
         X       0.6884      Y       0.1705      Z      -0.0099
       Tot       0.7093
    Quadrupole Moments (Debye-Ang)
        XX     -32.0099     XY      -1.0914     YY     -23.2840
        XZ       0.0632     YZ       0.0015     ZZ     -23.2820

 Total job time:  157.26s(wall), 936.14s(cpu)
        *  Thank you very much for using Q-Chem.  Have a nice day.  *
