 Q-Chem 5.1, Q-Chem, Inc., Pleasanton, CA (2018)
 Q-Chem 5.1.2 for Intel X86 EM64T Linux

User input:
--------------------------------------------------------------
$molecule
0 1
--
0 1
O     2.682746157     0.252087281     0.000000000
H     3.094283083     1.118876774     0.000000000
H     3.423599950    -0.357576759     0.000000000
--
0 1
Si     0.227373494     0.042414345     0.000000000
H     0.744595996    -0.635329952    -1.208291248
H     0.744595996    -0.635329952     1.208291248
H     0.667111329     1.455595762     0.000000000
C    -1.655016722    -0.023830937     0.000000000
H    -2.062384481     0.470166298     0.880759883
H    -2.007739474    -1.054067431     0.000000000
H    -2.062384481     0.470166298    -0.880759883
$end

$rem
BASIS = aug-cc-pVTZ
JOB_TYPE  =  BSSE
METHOD  =  MP2
SCF_CONVERGENCE  =  7
SCF_MAX_CYCLES  =  200
$end

--------------------------------------------------------------

             Standard Nuclear Orientation (Angstroms)
    I     Atom           X                Y                Z
 ----------------------------------------------------------------
    1      O       2.2092075834     0.0083431206     0.0000000000
    2      H       2.6794437212     0.8447429301     0.0000000000
    3      H       2.9063300886    -0.6508797530    -0.0000000000
    4      Si     -0.2547743905    -0.0317877457    -0.0000000000
    5      H       0.2145603379    -0.7435330381    -1.2082912480
    6      H       0.2145603379    -0.7435330381     1.2082912480
    7      H       0.2812130815     1.3477659904     0.0000000000
    8      C      -2.1372589292     0.0317207115     0.0000000000
    9      H      -2.5096499717     0.5525917807     0.8807598830
   10      H      -2.5600732488    -0.9717874472    -0.0000000000
   11      H      -2.5096499717     0.5525917807    -0.8807598830
 ----------------------------------------------------------------

    8    -406.3697679436      5.78E-08 Convergence criterion met
 Total energy in the final basis set = -406.36976794
        MP2         total energy =                  -406.96926702 au

             Orbital Energies (a.u.) and Symmetries
 --------------------------------------------------------------

 Alpha MOs, Restricted
 -- Occupied --
-68.744 -20.581 -11.184  -6.091  -4.197  -4.197  -4.197  -1.374
  1 A'    2 A'    3 A'    4 A'    5 A'    1 A"    6 A'    7 A'
 -0.927  -0.736  -0.699  -0.594  -0.546  -0.543  -0.534  -0.448
  8 A'    9 A'   10 A'   11 A'    2 A"   12 A'    3 A"   13 A'
 -0.440  -0.418
  4 A"   14 A'

 Beta MOs, Restricted
 -- Occupied --
-68.744 -20.581 -11.184  -6.091  -4.197  -4.197  -4.197  -1.374
  1 A'    2 A'    3 A'    4 A'    5 A'    1 A"    6 A'    7 A'
 -0.927  -0.736  -0.699  -0.594  -0.546  -0.543  -0.534  -0.448
  8 A'    9 A'   10 A'   11 A'    2 A"   12 A'    3 A"   13 A'
 -0.440  -0.418
  4 A"   14 A'

          Ground-State Mulliken Net Atomic Charges

     Atom                 Charge (a.u.)
  ----------------------------------------
      1 O                    -0.336468
      2 H                     0.187293
      3 H                     0.136563
      4 Si                    1.515827
      5 H                    -0.324983
      6 H                    -0.324983
      7 H                    -0.364698
      8 C                    -1.299744
      9 H                     0.268213
     10 H                     0.274767
     11 H                     0.268213
  ----------------------------------------
  Sum of atomic charges =     0.000000

                    Cartesian Multipole Moments
 -----------------------------------------------------------------
    Charge (ESU x 10^10)
                 0.0000
    Dipole Moment (Debye)
         X       2.5676      Y       0.2513      Z       0.0000
       Tot       2.5799
    Quadrupole Moments (Debye-Ang)
        XX     -19.4858     XY       0.4250     YY     -28.1821
        XZ      -0.0000     YZ      -0.0000     ZZ     -31.2003

 Total job time:  414.28s(wall), 812.40s(cpu)
        *  Thank you very much for using Q-Chem.  Have a nice day.  *
