 Q-Chem 5.1, Q-Chem, Inc., Pleasanton, CA (2018)
 Q-Chem 5.1.2 for Intel X86 EM64T Linux

User input:
--------------------------------------------------------------
$molecule
0 1
Si     3.762272567     0.100944777     0.006072646
H     3.981291986     1.564414477     0.064186564
H     4.389924271    -0.416429655    -1.231422106
H     4.439607953    -0.519141536     1.167849490
C     1.925645521    -0.291305561     0.027271718
H     1.759401550    -1.366486120    -0.015128601
H     1.421772543     0.162315456    -0.824405717
H     1.458679937     0.087942478     0.934592371
Si    -3.157928405    -0.123569979     0.011294645
H    -3.387621726    -1.402472616    -0.699187117
H    -3.961380846     0.929385781    -0.651115537
H    -3.638369711    -0.270566405     1.404375741
C    -1.334331319     0.324889361    -0.012699694
H    -1.159949573     1.264708631     0.508551404
H    -0.975666730     0.434107177    -1.034788968
H    -0.737963018    -0.446012151     0.471972569
$end

$rem
BASIS = aug-cc-pVTZ
JOB_TYPE  =  SP
METHOD  =  MP2
SCF_MAX_CYCLES  =  200
$end

--------------------------------------------------------------

    6    -660.6417526674      3.36e-06  Convergence criterion met
 Total energy in the final basis set =     -660.6417526674
        MP2         total energy =                  -661.29329146 au
 Total job time:  542.95s(wall), 3220.24s(cpu)
        *  Thank you very much for using Q-Chem.  Have a nice day.  *
 Q-Chem 5.1, Q-Chem, Inc., Pleasanton, CA (2018)
 Q-Chem 5.1.2 for Intel X86 EM64T Linux

User input:
--------------------------------------------------------------

$molecule
0 1
Si     3.762272567     0.100944777     0.006072646
H     3.981291986     1.564414477     0.064186564
H     4.389924271    -0.416429655    -1.231422106
H     4.439607953    -0.519141536     1.167849490
C     1.925645521    -0.291305561     0.027271718
H     1.759401550    -1.366486120    -0.015128601
H     1.421772543     0.162315456    -0.824405717
H     1.458679937     0.087942478     0.934592371
@Si   -3.157928405    -0.123569979     0.011294645
@H    -3.387621726    -1.402472616    -0.699187117
@H    -3.961380846     0.929385781    -0.651115537
@H    -3.638369711    -0.270566405     1.404375741
@C    -1.334331319     0.324889361    -0.012699694
@H    -1.159949573     1.264708631     0.508551404
@H    -0.975666730     0.434107177    -1.034788968
@H    -0.737963018    -0.446012151     0.471972569
$end

$rem
BASIS = aug-cc-pVTZ
JOB_TYPE  =  SP
METHOD  =  MP2
SCF_MAX_CYCLES  =  200
$end

--------------------------------------------------------------

    6    -330.3232088573      2.48e-06  Convergence criterion met
 Total energy in the final basis set =     -330.3232088573
        MP2         total energy =                  -330.64711558 au
 Total job time:  450.47s(wall), 2694.20s(cpu)
        *  Thank you very much for using Q-Chem.  Have a nice day.  *
 Q-Chem 5.1, Q-Chem, Inc., Pleasanton, CA (2018)
 Q-Chem 5.1.2 for Intel X86 EM64T Linux

User input:
--------------------------------------------------------------

$molecule
0 1
@Si    3.762272567     0.100944777     0.006072646
@H     3.981291986     1.564414477     0.064186564
@H     4.389924271    -0.416429655    -1.231422106
@H     4.439607953    -0.519141536     1.167849490
@C     1.925645521    -0.291305561     0.027271718
@H     1.759401550    -1.366486120    -0.015128601
@H     1.421772543     0.162315456    -0.824405717
@H     1.458679937     0.087942478     0.934592371
Si   -3.157928405    -0.123569979     0.011294645
H    -3.387621726    -1.402472616    -0.699187117
H    -3.961380846     0.929385781    -0.651115537
H    -3.638369711    -0.270566405     1.404375741
C    -1.334331319     0.324889361    -0.012699694
H    -1.159949573     1.264708631     0.508551404
H    -0.975666730     0.434107177    -1.034788968
H    -0.737963018    -0.446012151     0.471972569
$end

$rem
BASIS = aug-cc-pVTZ
JOB_TYPE  =  SP
METHOD  =  MP2
SCF_MAX_CYCLES  =  200
$end

--------------------------------------------------------------

             Standard Nuclear Orientation (Angstroms)
    I     Atom           X                Y                Z
 ----------------------------------------------------------------
    1      GH      3.7622725670     0.1009447770     0.0060726460
    2      GH      3.9812919860     1.5644144770     0.0641865640
    3      GH      4.3899242710    -0.4164296550    -1.2314221060
    4      GH      4.4396079530    -0.5191415360     1.1678494900
    5      GH      1.9256455210    -0.2913055610     0.0272717180
    6      GH      1.7594015500    -1.3664861200    -0.0151286010
    7      GH      1.4217725430     0.1623154560    -0.8244057170
    8      GH      1.4586799370     0.0879424780     0.9345923710
    9      Si     -3.1579284050    -0.1235699790     0.0112946450
   10      H      -3.3876217260    -1.4024726160    -0.6991871170
   11      H      -3.9613808460     0.9293857810    -0.6511155370
   12      H      -3.6383697110    -0.2705664050     1.4043757410
   13      C      -1.3343313190     0.3248893610    -0.0126996940
   14      H      -1.1599495730     1.2647086310     0.5085514040
   15      H      -0.9756667300     0.4341071770    -1.0347889680
   16      H      -0.7379630180    -0.4460121510     0.4719725690
 ----------------------------------------------------------------

    6    -330.3232053735      2.49e-06  Convergence criterion met
 Total energy in the final basis set =     -330.3232053735
        MP2         total energy =                  -330.64710102 au

                    Orbital Energies (a.u.)
 --------------------------------------------------------------

 Alpha MOs
 -- Occupied --
-68.766 -11.208  -6.115  -4.221  -4.221  -4.220  -0.950  -0.699
 -0.565  -0.565  -0.469  -0.469  -0.455

          Ground-State Mulliken Net Atomic Charges

     Atom                 Charge (a.u.)
  ----------------------------------------
      1 GH                   -0.002651
      2 GH                    0.000291
      3 GH                    0.000301
      4 GH                    0.000274
      5 GH                    0.004890
      6 GH                    0.004471
      7 GH                   -0.002096
      8 GH                    0.002672
      9 Si                    1.257916
     10 H                    -0.374836
     11 H                    -0.394947
     12 H                    -0.388803
     13 C                    -1.026414
     14 H                     0.312330
     15 H                     0.297675
     16 H                     0.308905
  ----------------------------------------
  Sum of atomic charges =    -0.000023

                    Cartesian Multipole Moments
 -----------------------------------------------------------------
    Charge (ESU x 10^10)
                -0.0001
    Dipole Moment (Debye)
         X       0.6884      Y       0.1706      Z      -0.0100
       Tot       0.7093
    Quadrupole Moments (Debye-Ang)
        XX     -27.1512     XY      -0.5092     YY     -23.2923
        XZ       0.0324     YZ       0.0029     ZZ     -23.2812

 Total job time:  450.03s(wall), 2691.71s(cpu)
        *  Thank you very much for using Q-Chem.  Have a nice day.  *
