 Q-Chem 5.1, Q-Chem, Inc., Pleasanton, CA (2018)
 Q-Chem 5.1.2 for Intel X86 EM64T Linux

User input:
--------------------------------------------------------------
$molecule
0 1
--
0 1
Si     2.206519773     0.028225580     0.000619108
H     1.719687849     0.752119435    -1.196193955
H     1.720552923     0.738931435     1.205678115
H     1.620645936    -1.331752276    -0.006589851
C     4.082202750    -0.060760672    -0.000507565
H     4.444822828    -0.592187257     0.877602138
H     4.444224422    -0.582384122    -0.884721181
H     4.516939396     0.937214734     0.004896367
--
0 1
Si    -6.699931178    -0.011815368     0.001916947
H    -7.238341182     0.670244559    -1.197355495
H    -7.227983942     0.673186427     1.204110833
H    -7.194751944    -1.407695212     0.005752308
C    -4.822217922     0.022698373    -0.006207293
H    -4.422962495    -0.478092123     0.874180839
H    -4.430464294    -0.480461208    -0.888611911
H    -4.455251253     1.047784161    -0.009167533
$end

$rem
BASIS = aug-cc-pVTZ
JOB_TYPE  =  BSSE
METHOD  =  MP2
SCF_MAX_CYCLES  =  200
$end

--------------------------------------------------------------

             Standard Nuclear Orientation (Angstroms)
    I     Atom           X                Y                Z
 ----------------------------------------------------------------
    1      Si     -3.8190098055    -0.0321862423     0.0015551676
    2      H      -3.3315962601    -0.7811914822    -1.1794648702
    3      H      -3.3325010640    -0.7165115222     1.2215723632
    4      H      -3.2342015114     1.3277830752    -0.0348124724
    5      C      -5.6947619077     0.0552857464    -0.0014705422
    6      H      -6.0578089592     0.6051323991     0.8650452878
    7      H      -6.0571813030     0.5575481178    -0.8966627704
    8      H      -6.1287166397    -0.9426847230     0.0253305329
    9      Si      5.0874070263     0.0148516542     0.0019536269
   10      H       5.6263658919    -0.6923416028    -1.1824223713
   11      H       5.6159815666    -0.6438039346     1.2185550781
   12      H       5.5811340154     1.4108801429    -0.0241415484
   13      C       3.2097214853    -0.0212995418    -0.0054202158
   14      H       2.8100630695     0.4979382180     0.8640305185
   15      H       2.8175845862     0.4625186994    -0.8984078644
   16      H       2.8435580510    -1.0465003807     0.0135995423
 ----------------------------------------------------------------

    2    -660.6463376398      7.09E-06 Convergence criterion met
 Total energy in the final basis set = -660.64633764
        MP2         total energy =                  -661.29361203 au

                    Orbital Energies (a.u.)
 --------------------------------------------------------------

 Alpha MOs
 -- Occupied --
-68.767 -68.765 -11.209 -11.208  -6.115  -6.114  -4.222  -4.222
 -4.221  -4.220  -4.220  -4.220  -0.951  -0.949  -0.700  -0.698
 -0.566  -0.566  -0.564  -0.564  -0.470  -0.469  -0.468  -0.468
 -0.455  -0.454

          Ground-State Mulliken Net Atomic Charges

     Atom                 Charge (a.u.)
  ----------------------------------------
      1 Si                    1.278967
      2 H                    -0.362512
      3 H                    -0.362512
      4 H                    -0.363749
      5 C                    -1.036952
      6 H                     0.281789
      7 H                     0.281758
      8 H                     0.282110
      9 Si                    1.352392
     10 H                    -0.381996
     11 H                    -0.381856
     12 H                    -0.381830
     13 C                    -1.032228
     14 H                     0.275913
     15 H                     0.275615
     16 H                     0.275077
  ----------------------------------------
  Sum of atomic charges =    -0.000013

                    Cartesian Multipole Moments
 -----------------------------------------------------------------
    Charge (ESU x 10^10)
                -0.0001
    Dipole Moment (Debye)
         X      -1.4379      Y       0.0202      Z      -0.0041
       Tot       1.4381
    Quadrupole Moments (Debye-Ang)
        XX     -47.3969     XY      -0.2035     YY     -46.5593
        XZ      -0.0088     YZ       0.0000     ZZ     -46.5606

 Total job time:  632.62s(wall), 1616.45s(cpu)
        *  Thank you very much for using Q-Chem.  Have a nice day.  *
