 Q-Chem 5.1, Q-Chem, Inc., Pleasanton, CA (2018)
 Q-Chem 5.1.2 for Intel X86 EM64T Linux

User input:
--------------------------------------------------------------
$molecule
0 1
--
0 1
O     3.417192278    -0.078854989     0.000000000
H     3.621539415     0.858418795     0.000000000
H     2.457629173    -0.098605673     0.000000000
--
0 1
Si    -2.158993570    -0.028570328     0.000000000
H    -2.637772855    -0.745080696     1.203009641
H    -2.637772855    -0.745080696    -1.203009641
H    -2.733820825     1.335464662     0.000000000
C    -0.279421601     0.058001755     0.000000000
H     0.077937263     0.582315872    -0.885246536
H     0.140536555    -0.947394915     0.000000000
H     0.077937263     0.582315872     0.885246536
$end

$rem
BASIS = aug-cc-pVTZ
JOB_TYPE  =  BSSE
METHOD  =  MP2
SCF_CONVERGENCE  =  7
SCF_MAX_CYCLES  =  200
$end

--------------------------------------------------------------

             Standard Nuclear Orientation (Angstroms)
    I     Atom           X                Y                Z
 ----------------------------------------------------------------
    1      O       3.5884892380    -0.1149969245    -0.0000000000
    2      H       3.8012543857     0.8204018624     0.0000000000
    3      H       2.6287873491    -0.1261201562    -0.0000000000
    4      Si     -1.9870191933    -0.0145833286    -0.0000000000
    5      H      -2.4722206936    -0.7267604241     1.2030096410
    6      H      -2.4722206936    -0.7267604241    -1.2030096410
    7      H      -2.5495602851     1.3545643431     0.0000000000
    8      C      -0.1067448832     0.0550875478     0.0000000000
    9      H       0.2553132222     0.5761677520    -0.8852465360
   10      H       0.3041575947    -0.9540439950    -0.0000000000
   11      H       0.2553132222     0.5761677520     0.8852465360
 ----------------------------------------------------------------

    7    -406.3836224188      9.81E-08 Convergence criterion met
 Total energy in the final basis set = -406.38362242
        MP2         total energy =                  -406.97763812 au

             Orbital Energies (a.u.) and Symmetries
 --------------------------------------------------------------

 Alpha MOs, Restricted
 -- Occupied --
-68.774 -20.565 -11.221  -6.123  -4.229  -4.229  -4.229  -1.351
  1 A'    2 A'    3 A'    4 A'    1 A"    5 A'    6 A'    7 A'
 -0.962  -0.714  -0.705  -0.585  -0.578  -0.578  -0.508  -0.477
  8 A'    9 A'   10 A'   11 A'    2 A"   12 A'    3 A"    4 A"
 -0.477  -0.464
 13 A'   14 A'

 Beta MOs, Restricted
 -- Occupied --
-68.774 -20.565 -11.221  -6.123  -4.229  -4.229  -4.229  -1.351
  1 A'    2 A'    3 A'    4 A'    1 A"    5 A'    6 A'    7 A'
 -0.962  -0.714  -0.705  -0.585  -0.578  -0.578  -0.508  -0.477
  8 A'    9 A'   10 A'   11 A'    2 A"   12 A'    3 A"    4 A"
 -0.477  -0.464
 13 A'   14 A'

          Ground-State Mulliken Net Atomic Charges

     Atom                 Charge (a.u.)
  ----------------------------------------
      1 O                    -0.506980
      2 H                     0.197977
      3 H                     0.304980
      4 Si                    1.326603
      5 H                    -0.378994
      6 H                    -0.378994
      7 H                    -0.392080
      8 C                    -1.043460
      9 H                     0.291155
     10 H                     0.288636
     11 H                     0.291155
  ----------------------------------------
  Sum of atomic charges =     0.000000

                    Cartesian Multipole Moments
 -----------------------------------------------------------------
    Charge (ESU x 10^10)
                 0.0000
    Dipole Moment (Debye)
         X      -0.9253      Y       1.5343      Z      -0.0000
       Tot       1.7917
    Quadrupole Moments (Debye-Ang)
        XX     -39.3351     XY       6.4379     YY     -28.6893
        XZ       0.0000     YZ      -0.0000     ZZ     -30.6984

 Total job time:  361.37s(wall), 688.56s(cpu)
        *  Thank you very much for using Q-Chem.  Have a nice day.  *
