 Q-Chem 5.1, Q-Chem, Inc., Pleasanton, CA (2018)
 Q-Chem 5.1.2 for Intel X86 EM64T Linux

User input:
--------------------------------------------------------------
$molecule
0 1
--
0 1
Si     2.014998435     0.321073490    -0.133289128
H     1.503542539     1.072357510     1.035552051
H     1.215154919    -0.917779499    -0.277040965
H     1.816801357     1.147049434    -1.346132733
C     3.832693717    -0.093902041     0.092465048
H     4.212738567    -0.647371106    -0.764407842
H     3.983063110    -0.702802282     0.982191073
H     4.425687573     0.812791426     0.199197617
--
0 1
Si    -1.306667714    -0.255047240    -0.019574970
H    -1.076898413    -1.424682540    -0.897898231
H    -0.784252283    -0.570571727     1.329424994
H    -0.540335711     0.892359940    -0.559590331
C    -3.136815087     0.159049503     0.061492943
H    -3.310937068     1.020724784     0.703495357
H    -3.705564487    -0.679538389     0.459522329
H    -3.525161208     0.391035136    -0.928662228
$end

$rem
BASIS = aug-cc-pVTZ
JOB_TYPE  =  BSSE
METHOD  =  MP2
SCF_CONVERGENCE  =  8
SCF_MAX_CYCLES  =  200
$end

--------------------------------------------------------------

             Standard Nuclear Orientation (Angstroms)
    I     Atom           X                Y                Z
 ----------------------------------------------------------------
    1      Si     -1.6704961627     0.2600898940     0.0460563514
    2      H      -1.1702117755     0.7765363653    -1.2482400166
    3      H      -0.8403308359    -0.9036926918     0.4354232636
    4      H      -1.5019247593     1.3161916228     1.0701368036
    5      C      -3.4753889113    -0.2393902812    -0.0956034447
    6      H      -3.8471731565    -0.6207801756     0.8537708055
    7      H      -3.6039476528    -1.0171782951    -0.8462706898
    8      H      -4.0905614216     0.6118562164    -0.3820799367
    9      Si      1.6655015236    -0.2392538110     0.0554004514
   10      H       1.4595106156    -1.2159825652     1.1489547958
   11      H       1.1607542711    -0.8310287418    -1.2044833248
   12      H       0.8663866042     0.9721352608     0.3543593584
   13      C       3.4850104251     0.1985332570    -0.1033993166
   14      H       3.6415776605     0.9192305401    -0.9040565347
   15      H       4.0777398147    -0.6872562961    -0.3251687080
   16      H       3.8603764991     0.6334057423     0.8212755118
 ----------------------------------------------------------------

    9    -660.6356504961      4.79E-09 Convergence criterion met
 Total energy in the final basis set = -660.63565050
        MP2         total energy =                  -661.29188609 au

                    Orbital Energies (a.u.)
 --------------------------------------------------------------

 Alpha MOs
 -- Occupied --
-68.763 -68.763 -11.204 -11.204  -6.112  -6.112  -4.218  -4.218
 -4.218  -4.218  -4.218  -4.218  -0.947  -0.946  -0.724  -0.676
 -0.563  -0.563  -0.562  -0.561  -0.484  -0.478  -0.476  -0.456
 -0.447  -0.430

          Ground-State Mulliken Net Atomic Charges

     Atom                 Charge (a.u.)
  ----------------------------------------
      1 Si                    1.639715
      2 H                    -0.361932
      3 H                    -0.318261
      4 H                    -0.388010
      5 C                    -1.357944
      6 H                     0.261060
      7 H                     0.279450
      8 H                     0.244409
      9 Si                    1.651676
     10 H                    -0.386845
     11 H                    -0.359253
     12 H                    -0.319654
     13 C                    -1.366981
     14 H                     0.278378
     15 H                     0.244216
     16 H                     0.259978
  ----------------------------------------
  Sum of atomic charges =    -0.000000

                    Cartesian Multipole Moments
 -----------------------------------------------------------------
    Charge (ESU x 10^10)
                 0.0000
    Dipole Moment (Debye)
         X      -0.0064      Y      -0.0256      Z      -0.0908
       Tot       0.0945
    Quadrupole Moments (Debye-Ang)
        XX     -42.2863     XY       0.4289     YY     -46.4783
        XZ      -0.0113     YZ      -0.0075     ZZ     -46.4494

 Total job time:  2186.47s(wall), 4560.85s(cpu)
        *  Thank you very much for using Q-Chem.  Have a nice day.  *
