 Q-Chem 5.1, Q-Chem, Inc., Pleasanton, CA (2018)
 Q-Chem 5.1.2 for Intel X86 EM64T Linux

User input:
--------------------------------------------------------------
$molecule
0 1
--
0 1
O     3.417192278    -0.078854989     0.000000000
H     3.621539415     0.858418795     0.000000000
H     2.457629173    -0.098605673     0.000000000
--
0 1
Si    -1.421029353    -0.032550951     0.000000000
H    -1.899808639    -0.749061319     1.203009641
H    -1.899808639    -0.749061319    -1.203009641
H    -1.995856609     1.331484039     0.000000000
C     0.458542616     0.054021133     0.000000000
H     0.815901479     0.578335249    -0.885246536
H     0.878500771    -0.951375537     0.000000000
H     0.815901479     0.578335249     0.885246536
$end

$rem
BASIS = aug-cc-pVTZ
JOB_TYPE  =  BSSE
METHOD  =  MP2
SCF_CONVERGENCE  =  7
SCF_MAX_CYCLES  =  200
$end

--------------------------------------------------------------

             Standard Nuclear Orientation (Angstroms)
    I     Atom           X                Y                Z
 ----------------------------------------------------------------
    1      O       3.0551892924    -0.1174743877     0.0000000000
    2      H       3.2710587621     0.8172128705    -0.0000000000
    3      H       2.0954557637    -0.1254113780     0.0000000000
    4      Si     -1.7820957421    -0.0116154744     0.0000000000
    5      H      -2.2696589749    -0.7221777912     1.2030096410
    6      H      -2.2696589749    -0.7221777912    -1.2030096410
    7      H      -2.3400882075     1.3593922706    -0.0000000000
    8      C       0.0983995107     0.0518125674    -0.0000000000
    9      H       0.4621855897     0.5716878774    -0.8852465360
   10      H       0.5059494381    -0.9586775971     0.0000000000
   11      H       0.4621855897     0.5716878774     0.8852465360
 ----------------------------------------------------------------

    8    -406.3762185980      6.79E-08 Convergence criterion met
 Total energy in the final basis set = -406.37621860
        MP2         total energy =                  -406.97417807 au

             Orbital Energies (a.u.) and Symmetries
 --------------------------------------------------------------

 Alpha MOs, Restricted
 -- Occupied --
-68.778 -20.553 -11.226  -6.127  -4.233  -4.233  -4.232  -1.343
  1 A'    2 A'    3 A'    4 A'    1 A"    5 A'    6 A'    7 A'
 -0.974  -0.723  -0.696  -0.587  -0.587  -0.578  -0.499  -0.480
  8 A'    9 A'   10 A'    2 A"   11 A'   12 A'    3 A"   13 A'
 -0.480  -0.467
  4 A"   14 A'

 Beta MOs, Restricted
 -- Occupied --
-68.778 -20.553 -11.226  -6.127  -4.233  -4.233  -4.232  -1.343
  1 A'    2 A'    3 A'    4 A'    1 A"    5 A'    6 A'    7 A'
 -0.974  -0.723  -0.696  -0.587  -0.587  -0.578  -0.499  -0.480
  8 A'    9 A'   10 A'    2 A"   11 A'   12 A'    3 A"   13 A'
 -0.480  -0.467
  4 A"   14 A'

          Ground-State Mulliken Net Atomic Charges

     Atom                 Charge (a.u.)
  ----------------------------------------
      1 O                    -0.569099
      2 H                     0.178216
      3 H                     0.391951
      4 Si                    1.315876
      5 H                    -0.368747
      6 H                    -0.368747
      7 H                    -0.381337
      8 C                    -0.925219
      9 H                     0.249448
     10 H                     0.228211
     11 H                     0.249448
  ----------------------------------------
  Sum of atomic charges =     0.000000

                    Cartesian Multipole Moments
 -----------------------------------------------------------------
    Charge (ESU x 10^10)
                 0.0000
    Dipole Moment (Debye)
         X      -1.2309      Y       1.5221      Z       0.0000
       Tot       1.9575
    Quadrupole Moments (Debye-Ang)
        XX     -38.4684     XY       5.6177     YY     -28.5518
        XZ       0.0000     YZ      -0.0000     ZZ     -30.5303

 Total job time:  403.62s(wall), 806.37s(cpu)
        *  Thank you very much for using Q-Chem.  Have a nice day.  *
