 Q-Chem 5.1, Q-Chem, Inc., Pleasanton, CA (2018)
 Q-Chem 5.1.2 for Intel X86 EM64T Linux

User input:
--------------------------------------------------------------
$molecule
0 1
Si     2.206519773     0.028225580     0.000619108
H     1.719687849     0.752119435    -1.196193955
H     1.720552923     0.738931435     1.205678115
H     1.620645936    -1.331752276    -0.006589851
C     4.082202750    -0.060760672    -0.000507565
H     4.444822828    -0.592187257     0.877602138
H     4.444224422    -0.582384122    -0.884721181
H     4.516939396     0.937214734     0.004896367
Si    -5.115780393    -0.011744649     0.002086029
H    -5.654190396     0.670315279    -1.197186414
H    -5.643833156     0.673257147     1.204279915
H    -5.610601158    -1.407624492     0.005921390
C    -3.238067136     0.022769093    -0.006038212
H    -2.838811710    -0.478021404     0.874349920
H    -2.846313508    -0.480390488    -0.888442830
H    -2.871100467     1.047854880    -0.008998452
$end

$rem
BASIS = aug-cc-pVTZ
JOB_TYPE  =  SP
METHOD  =  MP2
SCF_MAX_CYCLES  =  200
$end

--------------------------------------------------------------

    6    -660.6463701209      3.53e-06  Convergence criterion met
 Total energy in the final basis set =     -660.6463701209
        MP2         total energy =                  -661.29392856 au
 Total job time:  383.64s(wall), 2268.86s(cpu)
        *  Thank you very much for using Q-Chem.  Have a nice day.  *
 Q-Chem 5.1, Q-Chem, Inc., Pleasanton, CA (2018)
 Q-Chem 5.1.2 for Intel X86 EM64T Linux

User input:
--------------------------------------------------------------

$molecule
0 1
Si     2.206519773     0.028225580     0.000619108
H     1.719687849     0.752119435    -1.196193955
H     1.720552923     0.738931435     1.205678115
H     1.620645936    -1.331752276    -0.006589851
C     4.082202750    -0.060760672    -0.000507565
H     4.444822828    -0.592187257     0.877602138
H     4.444224422    -0.582384122    -0.884721181
H     4.516939396     0.937214734     0.004896367
@Si    -5.115780393    -0.011744649     0.002086029
@H    -5.654190396     0.670315279    -1.197186414
@H    -5.643833156     0.673257147     1.204279915
@H    -5.610601158    -1.407624492     0.005921390
@C    -3.238067136     0.022769093    -0.006038212
@H    -2.838811710    -0.478021404     0.874349920
@H    -2.846313508    -0.480390488    -0.888442830
@H    -2.871100467     1.047854880    -0.008998452
$end

$rem
BASIS = aug-cc-pVTZ
JOB_TYPE  =  SP
METHOD  =  MP2
SCF_MAX_CYCLES  =  200
$end

--------------------------------------------------------------

    6    -330.3231703939      2.48e-06  Convergence criterion met
 Total energy in the final basis set =     -330.3231703939
        MP2         total energy =                  -330.64681199 au
 Total job time:  208.50s(wall), 1242.23s(cpu)
        *  Thank you very much for using Q-Chem.  Have a nice day.  *
 Q-Chem 5.1, Q-Chem, Inc., Pleasanton, CA (2018)
 Q-Chem 5.1.2 for Intel X86 EM64T Linux

User input:
--------------------------------------------------------------

$molecule
0 1
@Si     2.206519773     0.028225580     0.000619108
@H     1.719687849     0.752119435    -1.196193955
@H     1.720552923     0.738931435     1.205678115
@H     1.620645936    -1.331752276    -0.006589851
@C     4.082202750    -0.060760672    -0.000507565
@H     4.444822828    -0.592187257     0.877602138
@H     4.444224422    -0.582384122    -0.884721181
@H     4.516939396     0.937214734     0.004896367
Si    -5.115780393    -0.011744649     0.002086029
H    -5.654190396     0.670315279    -1.197186414
H    -5.643833156     0.673257147     1.204279915
H    -5.610601158    -1.407624492     0.005921390
C    -3.238067136     0.022769093    -0.006038212
H    -2.838811710    -0.478021404     0.874349920
H    -2.846313508    -0.480390488    -0.888442830
H    -2.871100467     1.047854880    -0.008998452
$end

$rem
BASIS = aug-cc-pVTZ
JOB_TYPE  =  SP
METHOD  =  MP2
SCF_MAX_CYCLES  =  200
$end
--------------------------------------------------------------

             Standard Nuclear Orientation (Angstroms)
    I     Atom           X                Y                Z
 ----------------------------------------------------------------
    1      GH      2.2065197730     0.0282255800     0.0006191080
    2      GH      1.7196878490     0.7521194350    -1.1961939550
    3      GH      1.7205529230     0.7389314350     1.2056781150
    4      GH      1.6206459360    -1.3317522760    -0.0065898510
    5      GH      4.0822027500    -0.0607606720    -0.0005075650
    6      GH      4.4448228280    -0.5921872570     0.8776021380
    7      GH      4.4442244220    -0.5823841220    -0.8847211810
    8      GH      4.5169393960     0.9372147340     0.0048963670
    9      Si     -5.1157803930    -0.0117446490     0.0020860290
   10      H      -5.6541903960     0.6703152790    -1.1971864140
   11      H      -5.6438331560     0.6732571470     1.2042799150
   12      H      -5.6106011580    -1.4076244920     0.0059213900
   13      C      -3.2380671360     0.0227690930    -0.0060382120
   14      H      -2.8388117100    -0.4780214040     0.8743499200
   15      H      -2.8463135080    -0.4803904880    -0.8884428300
   16      H      -2.8711004670     1.0478548800    -0.0089984520
 ----------------------------------------------------------------

    6    -330.3231580793      2.48e-06  Convergence criterion met
 Total energy in the final basis set =     -330.3231580793
        MP2         total energy =                  -330.64680440 au

                    Orbital Energies (a.u.)
 --------------------------------------------------------------

 Alpha MOs
 -- Occupied --
-68.766 -11.209  -6.115  -4.221  -4.221  -4.220  -0.950  -0.699
 -0.565  -0.565  -0.469  -0.469  -0.455

          Ground-State Mulliken Net Atomic Charges

     Atom                 Charge (a.u.)
  ----------------------------------------
      1 GH                   -0.001312
      2 GH                   -0.000424
      3 GH                   -0.000424
      4 GH                   -0.000629
      5 GH                   -0.000218
      6 GH                   -0.000063
      7 GH                   -0.000062
      8 GH                   -0.000056
      9 Si                    1.386707
     10 H                    -0.398424
     11 H                    -0.398082
     12 H                    -0.398105
     13 C                    -1.057102
     14 H                     0.289960
     15 H                     0.289497
     16 H                     0.288730
  ----------------------------------------
  Sum of atomic charges =    -0.000006

                    Cartesian Multipole Moments
 -----------------------------------------------------------------
    Charge (ESU x 10^10)
                -0.0000
    Dipole Moment (Debye)
         X       0.7121      Y       0.0132      Z      -0.0031
       Tot       0.7122
    Quadrupole Moments (Debye-Ang)
        XX     -30.0721     XY      -0.0682     YY     -23.2777
        XZ       0.0149     YZ       0.0000     ZZ     -23.2792

 Total job time:  215.09s(wall), 1281.19s(cpu)
        *  Thank you very much for using Q-Chem.  Have a nice day.  *
