 Q-Chem 5.1, Q-Chem, Inc., Pleasanton, CA (2018)
 Q-Chem 5.1.2 for Intel X86 EM64T Linux

User input:
--------------------------------------------------------------
$molecule
0 1
--
0 1
O     2.682746157     0.252087281     0.000000000
H     3.094283083     1.118876774     0.000000000
H     3.423599950    -0.357576759     0.000000000
--
0 1
Si    -1.102390780    -0.061920287     0.000000000
H    -0.585168278    -0.739664584    -1.208291248
H    -0.585168278    -0.739664584     1.208291248
H    -0.662652945     1.351261130     0.000000000
C    -2.984780996    -0.128165570     0.000000000
H    -3.392148755     0.365831665     0.880759883
H    -3.337503748    -1.158402064     0.000000000
H    -3.392148755     0.365831665    -0.880759883
$end

$rem
BASIS = aug-cc-pVTZ
JOB_TYPE  =  BSSE
METHOD  =  MP2
SCF_CONVERGENCE  =  7
SCF_MAX_CYCLES  =  200
$end

--------------------------------------------------------------

             Standard Nuclear Orientation (Angstroms)
    I     Atom           X                Y                Z
 ----------------------------------------------------------------
    1      O       3.1725478712     0.0033445207     0.0000000000
    2      H       3.6464843251     0.8376531592     0.0000000000
    3      H       3.8667434331    -0.6589598701    -0.0000000000
    4      Si     -0.6254223157    -0.0325001971    -0.0000000000
    5      H      -0.1592449498    -0.7463174791    -1.2082912480
    6      H      -0.1592449498    -0.7463174791     1.2082912480
    7      H      -0.0833292096     1.3446657861     0.0000000000
    8      C      -2.5076070678     0.0393463187     0.0000000000
    9      H      -2.8776871982     0.5618618270     0.8807598830
   10      H      -2.9348623945    -0.9622790899    -0.0000000000
   11      H      -2.8776871982     0.5618618270    -0.8807598830
 ----------------------------------------------------------------

    7    -406.3837880093      6.28E-08 Convergence criterion met
 Total energy in the final basis set = -406.38378801
        MP2         total energy =                  -406.97691887 au

             Orbital Energies (a.u.) and Symmetries
 --------------------------------------------------------------

 Alpha MOs, Restricted
 -- Occupied --
-68.754 -20.569 -11.197  -6.103  -4.209  -4.209  -4.209  -1.354
  1 A'    2 A'    3 A'    4 A'    1 A"    5 A'    6 A'    7 A'
 -0.939  -0.717  -0.687  -0.587  -0.554  -0.554  -0.511  -0.458
  8 A'    9 A'   10 A'   11 A'    2 A"   12 A'    3 A"   13 A'
 -0.458  -0.441
  4 A"   14 A'

 Beta MOs, Restricted
 -- Occupied --
-68.754 -20.569 -11.197  -6.103  -4.209  -4.209  -4.209  -1.354
  1 A'    2 A'    3 A'    4 A'    1 A"    5 A'    6 A'    7 A'
 -0.939  -0.717  -0.687  -0.587  -0.554  -0.554  -0.511  -0.458
  8 A'    9 A'   10 A'   11 A'    2 A"   12 A'    3 A"   13 A'
 -0.458  -0.441
  4 A"   14 A'

          Ground-State Mulliken Net Atomic Charges

     Atom                 Charge (a.u.)
  ----------------------------------------
      1 O                    -0.429155
      2 H                     0.220631
      3 H                     0.213421
      4 Si                    1.257354
      5 H                    -0.334112
      6 H                    -0.334112
      7 H                    -0.342632
      8 C                    -1.079854
      9 H                     0.276245
     10 H                     0.275968
     11 H                     0.276245
  ----------------------------------------
  Sum of atomic charges =    -0.000000

                    Cartesian Multipole Moments
 -----------------------------------------------------------------
    Charge (ESU x 10^10)
                -0.0000
    Dipole Moment (Debye)
         X       1.6926      Y       0.2791      Z       0.0000
       Tot       1.7154
    Quadrupole Moments (Debye-Ang)
        XX     -15.6886     XY       0.7074     YY     -27.6920
        XZ      -0.0000     YZ       0.0000     ZZ     -30.9138

 Total job time:  342.07s(wall), 640.26s(cpu)
        *  Thank you very much for using Q-Chem.  Have a nice day.  *
