 Q-Chem 5.1, Q-Chem, Inc., Pleasanton, CA (2018)
 Q-Chem 5.1.2 for Intel X86 EM64T Linux

User input:
--------------------------------------------------------------
$molecule
0 1
--
0 1
Si     2.014998435     0.321073490    -0.133289128
H     1.503542539     1.072357510     1.035552051
H     1.215154919    -0.917779499    -0.277040965
H     1.816801357     1.147049434    -1.346132733
C     3.832693717    -0.093902041     0.092465048
H     4.212738567    -0.647371106    -0.764407842
H     3.983063110    -0.702802282     0.982191073
H     4.425687573     0.812791426     0.199197617
--
0 1
Si    -5.422291515    -0.538633500     0.041976945
H    -5.192522214    -1.708268799    -0.836346316
H    -4.899876084    -0.854157987     1.390976909
H    -4.655959512     0.608773681    -0.498038416
C    -7.252438888    -0.124536757     0.123044858
H    -7.426560869     0.737138525     0.765047272
H    -7.821188288    -0.963124649     0.521074244
H    -7.640785009     0.107448877    -0.867110313
$end

$rem
BASIS = aug-cc-pVTZ
JOB_TYPE  =  BSSE
METHOD  =  MP2
SCF_CONVERGENCE  =  7
SCF_MAX_CYCLES  =  200
$end

--------------------------------------------------------------

             Standard Nuclear Orientation (Angstroms)
    I     Atom           X                Y                Z
 ----------------------------------------------------------------
    1      Si     -3.7401634453     0.2397834940     0.0469909076
    2      H      -3.2561724820     0.7737871021    -1.2463757875
    3      H      -2.8755957284    -0.8997233309     0.4332781425
    4      H      -3.6024268459     1.2980984831     1.0733952944
    5      C      -5.5295157514    -0.3127312030    -0.0948950028
    6      H      -5.8892701625    -0.7071413796     0.8537938924
    7      H      -5.6353615866    -1.0922881755    -0.8472715330
    8      H      -6.1698492800     0.5205266529    -0.3791148392
    9      Si      3.7346107776    -0.2193350088     0.0545157373
   10      H       3.5583309578    -1.2042256732     1.1459405948
   11      H       3.2469284316    -0.8229734087    -1.2064605111
   12      H       2.9000618682     0.9671178254     0.3566454412
   13      C       5.5402315341     0.2726292262    -0.1042054051
   14      H       5.6748774642     0.9994705185    -0.9032936761
   15      H       6.1588653756    -0.5946699080    -0.3282975883
   16      H       5.9030546398     0.7163543612     0.8212699891
 ----------------------------------------------------------------

    5    -660.6462889227      9.56E-08 Convergence criterion met
 Total energy in the final basis set = -660.64628892
        MP2         total energy =                  -661.29355056 au

                    Orbital Energies (a.u.)
 --------------------------------------------------------------

 Alpha MOs
 -- Occupied --
-68.765 -68.765 -11.208 -11.208  -6.114  -6.114  -4.220  -4.220
 -4.220  -4.220  -4.219  -4.219  -0.949  -0.949  -0.698  -0.698
 -0.564  -0.564  -0.564  -0.564  -0.468  -0.468  -0.467  -0.467
 -0.454  -0.454

          Ground-State Mulliken Net Atomic Charges

     Atom                 Charge (a.u.)
  ----------------------------------------
      1 Si                    1.279230
      2 H                    -0.359267
      3 H                    -0.367764
      4 H                    -0.360015
      5 C                    -1.038616
      6 H                     0.281829
      7 H                     0.281107
      8 H                     0.283554
      9 Si                    1.278990
     10 H                    -0.359909
     11 H                    -0.359053
     12 H                    -0.367349
     13 C                    -1.038555
     14 H                     0.280961
     15 H                     0.283220
     16 H                     0.281637
  ----------------------------------------
  Sum of atomic charges =    -0.000000

                    Cartesian Multipole Moments
 -----------------------------------------------------------------
    Charge (ESU x 10^10)
                -0.0000
    Dipole Moment (Debye)
         X       0.0041      Y      -0.0235      Z      -0.1156
       Tot       0.1181
    Quadrupole Moments (Debye-Ang)
        XX     -35.6975     XY       1.3736     YY     -46.6605
        XZ      -0.0185     YZ      -0.0001     ZZ     -46.5618

 Total job time:  796.61s(wall), 2104.89s(cpu)
        *  Thank you very much for using Q-Chem.  Have a nice day.  *
