 Q-Chem 5.1, Q-Chem, Inc., Pleasanton, CA (2018)
 Q-Chem 5.1.2 for Intel X86 EM64T Linux

User input:
--------------------------------------------------------------
$molecule
0 1
Si     2.014998435     0.321073490    -0.133289128
H     1.503542539     1.072357510     1.035552051
H     1.215154919    -0.917779499    -0.277040965
H     1.816801357     1.147049434    -1.346132733
C     3.832693717    -0.093902041     0.092465048
H     4.212738567    -0.647371106    -0.764407842
H     3.983063110    -0.702802282     0.982191073
H     4.425687573     0.812791426     0.199197617
Si    -1.806293264    -0.289473842    -0.012102735
H    -1.576523963    -1.459109141    -0.890425996
H    -1.283877833    -0.604998329     1.336897230
H    -1.039961261     0.857933339    -0.552118095
C    -3.636440637     0.124622901     0.068965178
H    -3.810562618     0.986298183     0.710967592
H    -4.205190038    -0.713964991     0.466994564
H    -4.024786758     0.356608535    -0.921189992
$end

$rem
BASIS = aug-cc-pVTZ
JOB_TYPE  =  SP
METHOD  =  MP2
SCF_MAX_CYCLES  =  200
$end

--------------------------------------------------------------

    6    -660.6440225240      3.46e-06  Convergence criterion met
 Total energy in the final basis set =     -660.6440225240
        MP2         total energy =                  -661.29566468 au
 Total job time:  505.23s(wall), 2997.06s(cpu)
        *  Thank you very much for using Q-Chem.  Have a nice day.  *
 Q-Chem 5.1, Q-Chem, Inc., Pleasanton, CA (2018)
 Q-Chem 5.1.2 for Intel X86 EM64T Linux

User input:
--------------------------------------------------------------

$molecule
0 1
@Si     2.014998435     0.321073490    -0.133289128
@H     1.503542539     1.072357510     1.035552051
@H     1.215154919    -0.917779499    -0.277040965
@H     1.816801357     1.147049434    -1.346132733
@C     3.832693717    -0.093902041     0.092465048
@H     4.212738567    -0.647371106    -0.764407842
@H     3.983063110    -0.702802282     0.982191073
@H     4.425687573     0.812791426     0.199197617
Si    -1.806293264    -0.289473842    -0.012102735
H    -1.576523963    -1.459109141    -0.890425996
H    -1.283877833    -0.604998329     1.336897230
H    -1.039961261     0.857933339    -0.552118095
C    -3.636440637     0.124622901     0.068965178
H    -3.810562618     0.986298183     0.710967592
H    -4.205190038    -0.713964991     0.466994564
H    -4.024786758     0.356608535    -0.921189992
$end

$rem
BASIS = aug-cc-pVTZ
JOB_TYPE  =  SP
METHOD  =  MP2
SCF_MAX_CYCLES  =  200
$end

--------------------------------------------------------------

    6    -330.3232484241      2.48e-06  Convergence criterion met
 Total energy in the final basis set =     -330.3232484241
        MP2         total energy =                  -330.64716511 au
 Total job time:  456.74s(wall), 2732.27s(cpu)
        *  Thank you very much for using Q-Chem.  Have a nice day.  *
 Q-Chem 5.1, Q-Chem, Inc., Pleasanton, CA (2018)
 Q-Chem 5.1.2 for Intel X86 EM64T Linux

User input:
--------------------------------------------------------------

$molecule
0 1
Si     2.014998435     0.321073490    -0.133289128
H     1.503542539     1.072357510     1.035552051
H     1.215154919    -0.917779499    -0.277040965
H     1.816801357     1.147049434    -1.346132733
C     3.832693717    -0.093902041     0.092465048
H     4.212738567    -0.647371106    -0.764407842
H     3.983063110    -0.702802282     0.982191073
H     4.425687573     0.812791426     0.199197617
@Si    -1.806293264    -0.289473842    -0.012102735
@H    -1.576523963    -1.459109141    -0.890425996
@H    -1.283877833    -0.604998329     1.336897230
@H    -1.039961261     0.857933339    -0.552118095
@C    -3.636440637     0.124622901     0.068965178
@H    -3.810562618     0.986298183     0.710967592
@H    -4.205190038    -0.713964991     0.466994564
@H    -4.024786758     0.356608535    -0.921189992
$end

$rem
BASIS = aug-cc-pVTZ
JOB_TYPE  =  SP
METHOD  =  MP2
SCF_MAX_CYCLES  =  200
$end

--------------------------------------------------------------

             Standard Nuclear Orientation (Angstroms)
    I     Atom           X                Y                Z
 ----------------------------------------------------------------
    1      Si      2.0149984350     0.3210734900    -0.1332891280
    2      H       1.5035425390     1.0723575100     1.0355520510
    3      H       1.2151549190    -0.9177794990    -0.2770409650
    4      H       1.8168013570     1.1470494340    -1.3461327330
    5      C       3.8326937170    -0.0939020410     0.0924650480
    6      H       4.2127385670    -0.6473711060    -0.7644078420
    7      H       3.9830631100    -0.7028022820     0.9821910730
    8      H       4.4256875730     0.8127914260     0.1991976170
    9      GH     -1.8062932640    -0.2894738420    -0.0121027350
   10      GH     -1.5765239630    -1.4591091410    -0.8904259960
   11      GH     -1.2838778330    -0.6049983290     1.3368972300
   12      GH     -1.0399612610     0.8579333390    -0.5521180950
   13      GH     -3.6364406370     0.1246229010     0.0689651780
   14      GH     -3.8105626180     0.9862981830     0.7109675920
   15      GH     -4.2051900380    -0.7139649910     0.4669945640
   16      GH     -4.0247867580     0.3566085350    -0.9211899920
 ----------------------------------------------------------------

    6    -330.3232462001      2.48e-06  Convergence criterion met
 Total energy in the final basis set =     -330.3232462001
        MP2         total energy =                  -330.64716035 au

                    Orbital Energies (a.u.)
 --------------------------------------------------------------

 Alpha MOs
 -- Occupied --
-68.766 -11.208  -6.114  -4.221  -4.221  -4.220  -0.950  -0.699
 -0.565  -0.565  -0.469  -0.468  -0.455

          Ground-State Mulliken Net Atomic Charges

     Atom                 Charge (a.u.)
  ----------------------------------------
      1 Si                    1.464285
      2 H                    -0.360663
      3 H                    -0.314962
      4 H                    -0.378955
      5 C                    -1.241860
      6 H                     0.269321
      7 H                     0.287594
      8 H                     0.251457
      9 GH                    0.035208
     10 GH                   -0.000193
     11 GH                   -0.002904
     12 GH                    0.007001
     13 GH                   -0.012406
     14 GH                   -0.001437
     15 GH                   -0.000647
     16 GH                   -0.000841
  ----------------------------------------
  Sum of atomic charges =    -0.000001

                    Cartesian Multipole Moments
 -----------------------------------------------------------------
    Charge (ESU x 10^10)
                -0.0000
    Dipole Moment (Debye)
         X       0.6868      Y      -0.1486      Z       0.0858
       Tot       0.7079
    Quadrupole Moments (Debye-Ang)
        XX     -20.0455     XY      -0.1888     YY     -23.3498
        XZ       0.1380     YZ       0.0337     ZZ     -23.2910

 Total job time:  449.96s(wall), 2691.82s(cpu)
        *  Thank you very much for using Q-Chem.  Have a nice day.  *
