 Q-Chem 5.1, Q-Chem, Inc., Pleasanton, CA (2018)
 Q-Chem 5.1.2 for Intel X86 EM64T Linux

User input:
--------------------------------------------------------------
$molecule
0 1
Si     2.014998435     0.321073490    -0.133289128
H     1.503542539     1.072357510     1.035552051
H     1.215154919    -0.917779499    -0.277040965
H     1.816801357     1.147049434    -1.346132733
C     3.832693717    -0.093902041     0.092465048
H     4.212738567    -0.647371106    -0.764407842
H     3.983063110    -0.702802282     0.982191073
H     4.425687573     0.812791426     0.199197617
Si    -3.791604769    -0.426271346     0.017588931
H    -3.561835468    -1.595906645    -0.860734330
H    -3.269189339    -0.741795833     1.366588895
H    -3.025272766     0.721135834    -0.522426430
C    -5.621752143    -0.012174603     0.098656844
H    -5.795874124     0.849500679     0.740659258
H    -6.190501543    -0.850762495     0.496686230
H    -6.010098264     0.219811031    -0.891498327
$end

$rem
BASIS = aug-cc-pVTZ
JOB_TYPE  =  SP
METHOD  =  MP2
SCF_MAX_CYCLES  =  200
$end

--------------------------------------------------------------

    6    -660.6463012539      3.49e-06  Convergence criterion met
 Total energy in the final basis set =     -660.6463012539
        MP2         total energy =                  -661.29384582 au
 Total job time:  350.64s(wall), 2072.81s(cpu)
        *  Thank you very much for using Q-Chem.  Have a nice day.  *
 Q-Chem 5.1, Q-Chem, Inc., Pleasanton, CA (2018)
 Q-Chem 5.1.2 for Intel X86 EM64T Linux

User input:
--------------------------------------------------------------

$molecule
0 1
@Si     2.014998435     0.321073490    -0.133289128
@H      1.503542539     1.072357510     1.035552051
@H      1.215154919    -0.917779499    -0.277040965
@H      1.816801357     1.147049434    -1.346132733
@C      3.832693717    -0.093902041     0.092465048
@H      4.212738567    -0.647371106    -0.764407842
@H      3.983063110    -0.702802282     0.982191073
@H      4.425687573     0.812791426     0.199197617
Si    -3.791604769    -0.426271346     0.017588931
H     -3.561835468    -1.595906645    -0.860734330
H     -3.269189339    -0.741795833     1.366588895
H     -3.025272766     0.721135834    -0.522426430
C     -5.621752143    -0.012174603     0.098656844
H     -5.795874124     0.849500679     0.740659258
H     -6.190501543    -0.850762495     0.496686230
H     -6.010098264     0.219811031    -0.891498327
$end

$rem
BASIS = aug-cc-pVTZ
JOB_TYPE  =  SP
METHOD  =  MP2
SCF_MAX_CYCLES  =  200
$end

--------------------------------------------------------------

    6    -330.3231635288      2.48e-06  Convergence criterion met
 Total energy in the final basis set =     -330.3231635288
        MP2         total energy =                  -330.64680068 au
 Total job time:  204.14s(wall), 1216.45s(cpu)
        *  Thank you very much for using Q-Chem.  Have a nice day.  *
 Q-Chem 5.1, Q-Chem, Inc., Pleasanton, CA (2018)
 Q-Chem 5.1.2 for Intel X86 EM64T Linux

User input:
--------------------------------------------------------------

$molecule
0 1
Si     2.014998435     0.321073490    -0.133289128
H      1.503542539     1.072357510     1.035552051
H      1.215154919    -0.917779499    -0.277040965
H      1.816801357     1.147049434    -1.346132733
C      3.832693717    -0.093902041     0.092465048
H      4.212738567    -0.647371106    -0.764407842
H      3.983063110    -0.702802282     0.982191073
H      4.425687573     0.812791426     0.199197617
@Si    -3.791604769    -0.426271346     0.017588931
@H     -3.561835468    -1.595906645    -0.860734330
@H     -3.269189339    -0.741795833     1.366588895
@H     -3.025272766     0.721135834    -0.522426430
@C     -5.621752143    -0.012174603     0.098656844
@H     -5.795874124     0.849500679     0.740659258
@H     -6.190501543    -0.850762495     0.496686230
@H     -6.010098264     0.219811031    -0.891498327
$end

$rem
BASIS = aug-cc-pVTZ
JOB_TYPE  =  SP
METHOD  =  MP2
SCF_MAX_CYCLES  =  200
$end
--------------------------------------------------------------

             Standard Nuclear Orientation (Angstroms)
    I     Atom           X                Y                Z
 ----------------------------------------------------------------
    1      Si      2.0149984350     0.3210734900    -0.1332891280
    2      H       1.5035425390     1.0723575100     1.0355520510
    3      H       1.2151549190    -0.9177794990    -0.2770409650
    4      H       1.8168013570     1.1470494340    -1.3461327330
    5      C       3.8326937170    -0.0939020410     0.0924650480
    6      H       4.2127385670    -0.6473711060    -0.7644078420
    7      H       3.9830631100    -0.7028022820     0.9821910730
    8      H       4.4256875730     0.8127914260     0.1991976170
    9      GH     -3.7916047690    -0.4262713460     0.0175889310
   10      GH     -3.5618354680    -1.5959066450    -0.8607343300
   11      GH     -3.2691893390    -0.7417958330     1.3665888950
   12      GH     -3.0252727660     0.7211358340    -0.5224264300
   13      GH     -5.6217521430    -0.0121746030     0.0986568440
   14      GH     -5.7958741240     0.8495006790     0.7406592580
   15      GH     -6.1905015430    -0.8507624950     0.4966862300
   16      GH     -6.0100982640     0.2198110310    -0.8914983270
 ----------------------------------------------------------------

    6    -330.3231634407      2.48e-06  Convergence criterion met
 Total energy in the final basis set =     -330.3231634407
        MP2         total energy =                  -330.64680036 au

                    Orbital Energies (a.u.)
 --------------------------------------------------------------

 Alpha MOs
 -- Occupied --
-68.766 -11.208  -6.115  -4.221  -4.221  -4.220  -0.950  -0.699
 -0.565  -0.565  -0.469  -0.468  -0.455

          Ground-State Mulliken Net Atomic Charges

     Atom                 Charge (a.u.)
  ----------------------------------------
      1 Si                    1.321443
      2 H                    -0.367390
      3 H                    -0.373940
      4 H                    -0.371321
      5 C                    -1.055422
      6 H                     0.282621
      7 H                     0.278105
      8 H                     0.281894
      9 GH                    0.001033
     10 GH                    0.000147
     11 GH                   -0.000308
     12 GH                    0.002984
     13 GH                    0.000073
     14 GH                    0.000062
     15 GH                   -0.000007
     16 GH                    0.000022
  ----------------------------------------
  Sum of atomic charges =    -0.000004

                    Cartesian Multipole Moments
 -----------------------------------------------------------------
    Charge (ESU x 10^10)
                -0.0000
    Dipole Moment (Debye)
         X       0.6871      Y      -0.1486      Z       0.0858
       Tot       0.7082
    Quadrupole Moments (Debye-Ang)
        XX     -20.0441     XY      -0.1895     YY     -23.3515
        XZ       0.1387     YZ       0.0337     ZZ     -23.2920

 Total job time:  204.70s(wall), 1219.57s(cpu)
        *  Thank you very much for using Q-Chem.  Have a nice day.  *
