 Q-Chem 5.1, Q-Chem, Inc., Pleasanton, CA (2018)
 Q-Chem 5.1.2 for Intel X86 EM64T Linux

User input:
--------------------------------------------------------------
$molecule
0 1
--
0 1
O     3.417192278    -0.078854989     0.000000000
H     3.621539415     0.858418795     0.000000000
H     2.457629173    -0.098605673     0.000000000
--
0 1
Si    -4.249676249    -0.017293062     0.000000000
H    -4.728455535    -0.733803429     1.203009641
H    -4.728455535    -0.733803429    -1.203009641
H    -4.824503505     1.346741929     0.000000000
C    -2.370104280     0.069279022     0.000000000
H    -2.012745417     0.593593138    -0.885246536
H    -1.950146125    -0.936117648     0.000000000
H    -2.012745417     0.593593138     0.885246536
$end

$rem
BASIS = aug-cc-pVTZ
JOB_TYPE  =  BSSE
METHOD  =  MP2
SCF_CONVERGENCE  =  7
SCF_MAX_CYCLES  =  200
$end

--------------------------------------------------------------

             Standard Nuclear Orientation (Angstroms)
    I     Atom           X                Y                Z
 ----------------------------------------------------------------
    1      O       5.0989489194    -0.1095327763    -0.0000000000
    2      H       5.3067240295     0.8269870591     0.0000000000
    3      H       4.1393199726    -0.1257724340    -0.0000000000
    4      Si     -2.5676430430    -0.0199193661    -0.0000000000
    5      H      -3.0490407257    -0.7346731571     1.2030096410
    6      H      -3.0490407257    -0.7346731571    -1.2030096410
    7      H      -3.1374756567     1.3462096993     0.0000000000
    8      C      -0.6877669012     0.0597750731     0.0000000000
    9      H      -0.3284920453     0.5827781583    -0.8852465360
   10      H      -0.2714901493    -0.9471514296    -0.0000000000
   11      H      -0.3284920453     0.5827781583     0.8852465360
 ----------------------------------------------------------------

    6    -406.3834564127      9.05E-08 Convergence criterion met
 Total energy in the final basis set = -406.38345641
        MP2         total energy =                  -406.97581337 au

             Orbital Energies (a.u.) and Symmetries
 --------------------------------------------------------------

 Alpha MOs, Restricted
 -- Occupied --
-68.769 -20.569 -11.213  -6.118  -4.224  -4.224  -4.224  -1.354
  1 A'    2 A'    3 A'    4 A'    1 A"    5 A'    6 A'    7 A'
 -0.954  -0.715  -0.702  -0.587  -0.571  -0.570  -0.511  -0.473
  8 A'    9 A'   10 A'   11 A'    2 A"   12 A'    3 A"    4 A"
 -0.472  -0.456
 13 A'   14 A'

 Beta MOs, Restricted
 -- Occupied --
-68.769 -20.569 -11.213  -6.118  -4.224  -4.224  -4.224  -1.354
  1 A'    2 A'    3 A'    4 A'    1 A"    5 A'    6 A'    7 A'
 -0.954  -0.715  -0.702  -0.587  -0.571  -0.570  -0.511  -0.473
  8 A'    9 A'   10 A'   11 A'    2 A"   12 A'    3 A"    4 A"
 -0.472  -0.456
 13 A'   14 A'

          Ground-State Mulliken Net Atomic Charges

     Atom                 Charge (a.u.)
  ----------------------------------------
      1 O                    -0.459097
      2 H                     0.216821
      3 H                     0.241199
      4 Si                    1.336921
      5 H                    -0.378569
      6 H                    -0.378569
      7 H                    -0.381989
      8 C                    -1.046248
      9 H                     0.281793
     10 H                     0.285944
     11 H                     0.281793
  ----------------------------------------
  Sum of atomic charges =    -0.000000

                    Cartesian Multipole Moments
 -----------------------------------------------------------------
    Charge (ESU x 10^10)
                -0.0000
    Dipole Moment (Debye)
         X      -0.6842      Y       1.5532      Z      -0.0000
       Tot       1.6972
    Quadrupole Moments (Debye-Ang)
        XX     -43.8434     XY       8.7336     YY     -28.7482
        XZ      -0.0000     YZ      -0.0000     ZZ     -30.7967

 Total job time:  251.67s(wall), 440.85s(cpu)
        *  Thank you very much for using Q-Chem.  Have a nice day.  *
