 Q-Chem 5.1, Q-Chem, Inc., Pleasanton, CA (2018)
 Q-Chem 5.1.2 for Intel X86 EM64T Linux

User input:
--------------------------------------------------------------
$molecule
0 1
--
0 1
Si     2.014998435     0.321073490    -0.133289128
H     1.503542539     1.072357510     1.035552051
H     1.215154919    -0.917779499    -0.277040965
H     1.816801357     1.147049434    -1.346132733
C     3.832693717    -0.093902041     0.092465048
H     4.212738567    -0.647371106    -0.764407842
H     3.983063110    -0.702802282     0.982191073
H     4.425687573     0.812791426     0.199197617
--
0 1
Si    -2.390919290    -0.329757385    -0.003359260
H    -2.161149989    -1.499392684    -0.881682521
H    -1.868503860    -0.645281872     1.345640704
H    -1.624587287     0.817649796    -0.543374621
C    -4.221066664     0.084339358     0.077708653
H    -4.395188645     0.946014640     0.719711067
H    -4.789816064    -0.754248534     0.475738039
H    -4.609412785     0.316324992    -0.912446518
$end

$rem
BASIS = aug-cc-pVTZ
JOB_TYPE  =  BSSE
METHOD  =  MP2
SCF_CONVERGENCE  =  8
SCF_MAX_CYCLES  =  200
$end

--------------------------------------------------------------

             Standard Nuclear Orientation (Angstroms)
    I     Atom           X                Y                Z
 ----------------------------------------------------------------
    1      Si     -2.2170424965     0.2542029042     0.0464438772
    2      H      -1.7240701169     0.7787254620    -1.2474103778
    3      H      -1.3712305039    -0.8987546602     0.4343380596
    4      H      -2.0623965963     1.3113576606     1.0716347953
    5      C      -4.0151050592    -0.2693042988    -0.0953200345
    6      H      -4.3814909285    -0.6566825504     0.8537282933
    7      H      -4.1334067620    -1.0479308900    -0.8468040304
    8      H      -4.6417220098     0.5739193739    -0.3807173587
    9      Si      2.2117948976    -0.2335461050     0.0550368154
   10      H       2.0192155901    -1.2141406711     1.1475751087
   11      H       1.7147100546    -0.8306720512    -1.2053685755
   12      H       1.3965696791     0.9666817258     0.3555123807
   13      C       4.0252225970     0.2287965777    -0.1037295295
   14      H       4.1718950395     0.9524009160    -0.9036381566
   15      H       4.6297305516    -0.6487154524    -0.3266099789
   16      H       4.3949571613     0.6676622737     0.8213275279
 ----------------------------------------------------------------

    9    -660.6459904293      9.91E-09 Convergence criterion met
 Total energy in the final basis set = -660.64599043
        MP2         total energy =                  -661.29513236 au

                    Orbital Energies (a.u.)
 --------------------------------------------------------------

 Alpha MOs
 -- Occupied --
-68.764 -68.764 -11.207 -11.207  -6.113  -6.113  -4.219  -4.219
 -4.219  -4.219  -4.218  -4.218  -0.948  -0.948  -0.701  -0.694
 -0.564  -0.564  -0.563  -0.563  -0.469  -0.468  -0.467  -0.465
 -0.455  -0.449

          Ground-State Mulliken Net Atomic Charges

     Atom                 Charge (a.u.)
  ----------------------------------------
      1 Si                    1.297881
      2 H                    -0.345467
      3 H                    -0.324279
      4 H                    -0.358970
      5 C                    -1.102484
      6 H                     0.276807
      7 H                     0.287859
      8 H                     0.269195
      9 Si                    1.298339
     10 H                    -0.356000
     11 H                    -0.342895
     12 H                    -0.326664
     13 C                    -1.105508
     14 H                     0.286391
     15 H                     0.269378
     16 H                     0.276418
  ----------------------------------------
  Sum of atomic charges =     0.000000

                    Cartesian Multipole Moments
 -----------------------------------------------------------------
    Charge (ESU x 10^10)
                 0.0000
    Dipole Moment (Debye)
         X       0.0011      Y      -0.0241      Z      -0.1144
       Tot       0.1169
    Quadrupole Moments (Debye-Ang)
        XX     -39.9421     XY       0.6876     YY     -46.6495
        XZ      -0.0093     YZ      -0.0012     ZZ     -46.5510

 Total job time:  2029.18s(wall), 4374.09s(cpu)
        *  Thank you very much for using Q-Chem.  Have a nice day.  *
