 Q-Chem 5.1, Q-Chem, Inc., Pleasanton, CA (2018)
 Q-Chem 5.1.2 for Intel X86 EM64T Linux

User input:
--------------------------------------------------------------
$molecule
0 1
Si     3.762272567     0.100944777     0.006072646
H     3.981291986     1.564414477     0.064186564
H     4.389924271    -0.416429655    -1.231422106
H     4.439607953    -0.519141536     1.167849490
C     1.925645521    -0.291305561     0.027271718
H     1.759401550    -1.366486120    -0.015128601
H     1.421772543     0.162315456    -0.824405717
H     1.458679937     0.087942478     0.934592371
Si    -3.758486005    -0.118812974     0.010320332
H    -3.988179326    -1.397715612    -0.700161430
H    -4.561938445     0.934142785    -0.652089850
H    -4.238927311    -0.265809400     1.403401428
C    -1.934888918     0.329646366    -0.013674007
H    -1.760507173     1.269465636     0.507577091
H    -1.576224329     0.438864182    -1.035763281
H    -1.338520617    -0.441255146     0.470998256
$end

$rem
BASIS = aug-cc-pVTZ
JOB_TYPE  =  SP
METHOD  =  MP2
SCF_MAX_CYCLES  =  200
$end

--------------------------------------------------------------

    6    -660.6456571374      3.45e-06  Convergence criterion met
 Total energy in the final basis set =     -660.6456571374
        MP2         total energy =                  -661.29462535 au
 Total job time:  461.23s(wall), 2733.44s(cpu)
        *  Thank you very much for using Q-Chem.  Have a nice day.  *
 Q-Chem 5.1, Q-Chem, Inc., Pleasanton, CA (2018)
 Q-Chem 5.1.2 for Intel X86 EM64T Linux

User input:
--------------------------------------------------------------

$molecule
0 1
Si     3.762272567     0.100944777     0.006072646
H     3.981291986     1.564414477     0.064186564
H     4.389924271    -0.416429655    -1.231422106
H     4.439607953    -0.519141536     1.167849490
C     1.925645521    -0.291305561     0.027271718
H     1.759401550    -1.366486120    -0.015128601
H     1.421772543     0.162315456    -0.824405717
H     1.458679937     0.087942478     0.934592371
@Si   -3.758486005    -0.118812974     0.010320332
@H    -3.988179326    -1.397715612    -0.700161430
@H    -4.561938445     0.934142785    -0.652089850
@H    -4.238927311    -0.265809400     1.403401428
@C    -1.934888918     0.329646366    -0.013674007
@H    -1.760507173     1.269465636     0.507577091
@H    -1.576224329     0.438864182    -1.035763281
@H    -1.338520617    -0.441255146     0.470998256
$end

$rem
BASIS = aug-cc-pVTZ
JOB_TYPE  =  SP
METHOD  =  MP2
SCF_MAX_CYCLES  =  200
$end

--------------------------------------------------------------

    6    -330.3231772612      2.48e-06  Convergence criterion met
 Total energy in the final basis set =     -330.3231772612
        MP2         total energy =                  -330.64693028 au
 Total job time:  416.68s(wall), 2492.23s(cpu)
        *  Thank you very much for using Q-Chem.  Have a nice day.  *
 Q-Chem 5.1, Q-Chem, Inc., Pleasanton, CA (2018)
 Q-Chem 5.1.2 for Intel X86 EM64T Linux

User input:
--------------------------------------------------------------

$molecule
0 1
@Si    3.762272567     0.100944777     0.006072646
@H     3.981291986     1.564414477     0.064186564
@H     4.389924271    -0.416429655    -1.231422106
@H     4.439607953    -0.519141536     1.167849490
@C     1.925645521    -0.291305561     0.027271718
@H     1.759401550    -1.366486120    -0.015128601
@H     1.421772543     0.162315456    -0.824405717
@H     1.458679937     0.087942478     0.934592371
Si   -3.758486005    -0.118812974     0.010320332
H    -3.988179326    -1.397715612    -0.700161430
H    -4.561938445     0.934142785    -0.652089850
H    -4.238927311    -0.265809400     1.403401428
C    -1.934888918     0.329646366    -0.013674007
H    -1.760507173     1.269465636     0.507577091
H    -1.576224329     0.438864182    -1.035763281
H    -1.338520617    -0.441255146     0.470998256
$end

$rem
BASIS = aug-cc-pVTZ
JOB_TYPE  =  SP
METHOD  =  MP2
SCF_MAX_CYCLES  =  200
$end

--------------------------------------------------------------

             Standard Nuclear Orientation (Angstroms)
    I     Atom           X                Y                Z
 ----------------------------------------------------------------
    1      GH      3.7622725670     0.1009447770     0.0060726460
    2      GH      3.9812919860     1.5644144770     0.0641865640
    3      GH      4.3899242710    -0.4164296550    -1.2314221060
    4      GH      4.4396079530    -0.5191415360     1.1678494900
    5      GH      1.9256455210    -0.2913055610     0.0272717180
    6      GH      1.7594015500    -1.3664861200    -0.0151286010
    7      GH      1.4217725430     0.1623154560    -0.8244057170
    8      GH      1.4586799370     0.0879424780     0.9345923710
    9      Si     -3.7584860050    -0.1188129740     0.0103203320
   10      H      -3.9881793260    -1.3977156120    -0.7001614300
   11      H      -4.5619384450     0.9341427850    -0.6520898500
   12      H      -4.2389273110    -0.2658094000     1.4034014280
   13      C      -1.9348889180     0.3296463660    -0.0136740070
   14      H      -1.7605071730     1.2694656360     0.5075770910
   15      H      -1.5762243290     0.4388641820    -1.0357632810
   16      H      -1.3385206170    -0.4412551460     0.4709982560
 ----------------------------------------------------------------

    6    -330.3231752776      2.48e-06  Convergence criterion met
 Total energy in the final basis set =     -330.3231752776
        MP2         total energy =                  -330.64692261 au

                    Orbital Energies (a.u.)
 --------------------------------------------------------------

 Alpha MOs
 -- Occupied --
-68.766 -11.208  -6.115  -4.221  -4.221  -4.220  -0.950  -0.699
 -0.565  -0.565  -0.469  -0.469  -0.455

          Ground-State Mulliken Net Atomic Charges

     Atom                 Charge (a.u.)
  ----------------------------------------
      1 GH                    0.000794
      2 GH                   -0.000090
      3 GH                    0.000094
      4 GH                    0.000100
      5 GH                    0.001827
      6 GH                    0.000970
      7 GH                   -0.001353
      8 GH                   -0.001853
      9 Si                    1.305258
     10 H                    -0.379955
     11 H                    -0.393836
     12 H                    -0.391315
     13 C                    -1.077846
     14 H                     0.309406
     15 H                     0.305938
     16 H                     0.321859
  ----------------------------------------
  Sum of atomic charges =    -0.000001

                    Cartesian Multipole Moments
 -----------------------------------------------------------------
    Charge (ESU x 10^10)
                -0.0000
    Dipole Moment (Debye)
         X       0.6886      Y       0.1706      Z      -0.0100
       Tot       0.7095
    Quadrupole Moments (Debye-Ang)
        XX     -27.9770     XY      -0.6083     YY     -23.2909
        XZ       0.0374     YZ       0.0023     ZZ     -23.2814

 Total job time:  417.18s(wall), 2495.08s(cpu)
        *  Thank you very much for using Q-Chem.  Have a nice day.  *
