 Q-Chem 5.1, Q-Chem, Inc., Pleasanton, CA (2018)
 Q-Chem 5.1.2 for Intel X86 EM64T Linux

User input:
--------------------------------------------------------------
$molecule
0 1
--
0 1
Si     2.206519773     0.028225580     0.000619108
H     1.719687849     0.752119435    -1.196193955
H     1.720552923     0.738931435     1.205678115
H     1.620645936    -1.331752276    -0.006589851
C     4.082202750    -0.060760672    -0.000507565
H     4.444822828    -0.592187257     0.877602138
H     4.444224422    -0.582384122    -0.884721181
H     4.516939396     0.937214734     0.004896367
--
0 1
Si    -3.145449703    -0.011656689     0.002296328
H    -3.683859706     0.670403238    -1.196976114
H    -3.673502467     0.673345106     1.204490214
H    -3.640270468    -1.407536533     0.006131689
C    -1.267736447     0.022857052    -0.005827912
H    -0.868481020    -0.477933444     0.874560220
H    -0.875982819    -0.480302529    -0.888232531
H    -0.900769778     1.047942839    -0.008788152
$end

$rem
BASIS = aug-cc-pVTZ
JOB_TYPE  =  BSSE
METHOD  =  MP2
SCF_CONVERGENCE  =  7
SCF_MAX_CYCLES  =  200
$end

--------------------------------------------------------------

             Standard Nuclear Orientation (Angstroms)
    I     Atom           X                Y                Z
 ----------------------------------------------------------------
    1      Si     -2.0417351469    -0.0329114296     0.0018139797
    2      H      -1.5537348882    -0.7842458484    -1.1774830490
    3      H      -1.5542639920    -0.7137605574     1.2233908869
    4      H      -1.4583974736     1.3275942506    -0.0379521341
    5      C      -3.9175808246     0.0525351972    -0.0010704769
    6      H      -4.2810586686     0.6040849280     0.8641814737
    7      H      -4.2807065375     0.5522410747    -0.8974064552
    8      H      -4.3504563640    -0.9458337656     0.0282253652
    9      Si      3.3101509168     0.0169497969     0.0014981805
   10      H       3.8496508457    -0.6925254543    -1.1812655999
   11      H       3.8396595875    -0.6381927402     1.2195893692
   12      H       3.8023704386     1.4134413886    -0.0280655657
   13      C       1.4325040318    -0.0212389231    -0.0054350943
   14      H       1.0324483293     0.4996697370     0.8628326540
   15      H       1.0396810903     0.4599962534    -0.8995163110
   16      H       1.0674476104    -1.0467840541     0.0161325514
 ----------------------------------------------------------------

    7    -660.6434709095      9.08E-08 Convergence criterion met
 Total energy in the final basis set = -660.64347091
        MP2         total energy =                  -661.29516919 au

                    Orbital Energies (a.u.)
 --------------------------------------------------------------

 Alpha MOs
 -- Occupied --
-68.766 -68.764 -11.208 -11.206  -6.115  -6.113  -4.221  -4.221
 -4.221  -4.219  -4.219  -4.219  -0.951  -0.949  -0.705  -0.693
 -0.567  -0.567  -0.563  -0.563  -0.472  -0.471  -0.465  -0.465
 -0.465  -0.443

          Ground-State Mulliken Net Atomic Charges

     Atom                 Charge (a.u.)
  ----------------------------------------
      1 Si                    1.614244
      2 H                    -0.361365
      3 H                    -0.361131
      4 H                    -0.360388
      5 C                    -1.351964
      6 H                     0.263472
      7 H                     0.263465
      8 H                     0.256693
      9 Si                    1.259576
     10 H                    -0.393425
     11 H                    -0.392822
     12 H                    -0.389617
     13 C                    -1.078571
     14 H                     0.342024
     15 H                     0.341993
     16 H                     0.347817
  ----------------------------------------
  Sum of atomic charges =    -0.000000

                    Cartesian Multipole Moments
 -----------------------------------------------------------------
    Charge (ESU x 10^10)
                -0.0000
    Dipole Moment (Debye)
         X      -1.3464      Y       0.0218      Z      -0.0045
       Tot       1.3465
    Quadrupole Moments (Debye-Ang)
        XX     -47.8478     XY      -0.1033     YY     -46.5325
        XZ      -0.0059     YZ       0.0000     ZZ     -46.5328

 Total job time:  1908.91s(wall), 4046.71s(cpu)
        *  Thank you very much for using Q-Chem.  Have a nice day.  *
