 Q-Chem 5.1, Q-Chem, Inc., Pleasanton, CA (2018)
 Q-Chem 5.1.2 for Intel X86 EM64T Linux

User input:
--------------------------------------------------------------
$molecule
0 1
--
0 1
O     3.417192278    -0.078854989     0.000000000
H     3.621539415     0.858418795     0.000000000
H     2.457629173    -0.098605673     0.000000000
--
0 1
Si    -3.099408644    -0.023497673     0.000000000
H    -3.578187930    -0.740008041     1.203009641
H    -3.578187930    -0.740008041    -1.203009641
H    -3.674235900     1.340537317     0.000000000
C    -1.219836675     0.063074410     0.000000000
H    -0.862477812     0.587388527    -0.885246536
H    -0.799878520    -0.942322260     0.000000000
H    -0.862477812     0.587388527     0.885246536
$end

$rem
BASIS = aug-cc-pVTZ
JOB_TYPE  =  BSSE
METHOD  =  MP2
SCF_CONVERGENCE  =  7
SCF_MAX_CYCLES  =  200
$end

--------------------------------------------------------------

             Standard Nuclear Orientation (Angstroms)
    I     Atom           X                Y                Z
 ----------------------------------------------------------------
    1      O       4.2679649578    -0.1122544354    -0.0000000000
    2      H       4.4779868716     0.8237640977     0.0000000000
    3      H       3.3082998032    -0.1261911885    -0.0000000000
    4      Si     -2.2481809780    -0.0174169329    -0.0000000000
    5      H      -2.7312924963    -0.7310134387     1.2030096410
    6      H      -2.7312924963    -0.7310134387    -1.2030096410
    7      H      -2.8147335995     1.3500756467     0.0000000000
    8      C      -0.3681190033     0.0577660660     0.0000000000
    9      H      -0.0075901117     0.5799054809    -0.8852465360
   10      H       0.0457401904    -0.9501564924    -0.0000000000
   11      H      -0.0075901117     0.5799054809     0.8852465360
 ----------------------------------------------------------------

    7    -406.3836349398      9.68E-08 Convergence criterion met
 Total energy in the final basis set = -406.38363494
        MP2         total energy =                  -406.97632622 au

             Orbital Energies (a.u.) and Symmetries
 --------------------------------------------------------------

 Alpha MOs, Restricted
 -- Occupied --
-68.771 -20.568 -11.216  -6.120  -4.226  -4.226  -4.226  -1.353
  1 A'    2 A'    3 A'    4 A'    1 A"    5 A'    6 A'    7 A'
 -0.957  -0.715  -0.704  -0.587  -0.574  -0.573  -0.511  -0.474
  8 A'    9 A'   10 A'   11 A'    2 A"   12 A'    3 A"    4 A"
 -0.474  -0.459
 13 A'   14 A'

 Beta MOs, Restricted
 -- Occupied --
-68.771 -20.568 -11.216  -6.120  -4.226  -4.226  -4.226  -1.353
  1 A'    2 A'    3 A'    4 A'    1 A"    5 A'    6 A'    7 A'
 -0.957  -0.715  -0.704  -0.587  -0.574  -0.573  -0.511  -0.474
  8 A'    9 A'   10 A'   11 A'    2 A"   12 A'    3 A"    4 A"
 -0.474  -0.459
 13 A'   14 A'

          Ground-State Mulliken Net Atomic Charges

     Atom                 Charge (a.u.)
  ----------------------------------------
      1 O                    -0.477493
      2 H                     0.209988
      3 H                     0.265892
      4 Si                    1.337652
      5 H                    -0.383791
      6 H                    -0.383791
      7 H                    -0.388521
      8 C                    -1.085198
      9 H                     0.301739
     10 H                     0.301784
     11 H                     0.301739
  ----------------------------------------
  Sum of atomic charges =     0.000000

                    Cartesian Multipole Moments
 -----------------------------------------------------------------
    Charge (ESU x 10^10)
                 0.0000
    Dipole Moment (Debye)
         X      -0.7611      Y       1.5445      Z       0.0000
       Tot       1.7219
    Quadrupole Moments (Debye-Ang)
        XX     -41.2620     XY       7.4726     YY     -28.7371
        XZ      -0.0000     YZ      -0.0000     ZZ     -30.7695

 Total job time:  298.36s(wall), 548.90s(cpu)
        *  Thank you very much for using Q-Chem.  Have a nice day.  *
