 Q-Chem 5.1, Q-Chem, Inc., Pleasanton, CA (2018)
 Q-Chem 5.1.2 for Intel X86 EM64T Linux

User input:
--------------------------------------------------------------
$molecule
0 1
--
0 1
Si     2.206519773     0.028225580     0.000619108
H     1.719687849     0.752119435    -1.196193955
H     1.720552923     0.738931435     1.205678115
H     1.620645936    -1.331752276    -0.006589851
C     4.082202750    -0.060760672    -0.000507565
H     4.444822828    -0.592187257     0.877602138
H     4.444224422    -0.582384122    -0.884721181
H     4.516939396     0.937214734     0.004896367
--
0 1
Si    -3.652421463    -0.011679321     0.002242218
H    -4.190831467     0.670380606    -1.197030225
H    -4.180474227     0.673322474     1.204436103
H    -4.147242229    -1.407559165     0.006077578
C    -1.774708207     0.022834420    -0.005882023
H    -1.375452780    -0.477956076     0.874506109
H    -1.382954579    -0.480325161    -0.888286641
H    -1.407741538     1.047920207    -0.008842263
$end

$rem
BASIS = aug-cc-pVTZ
JOB_TYPE  =  BSSE
METHOD  =  MP2
SCF_MAX_CYCLES  =  200
$end

--------------------------------------------------------------

             Standard Nuclear Orientation (Angstroms)
    I     Atom           X                Y                Z
 ----------------------------------------------------------------
    1      Si     -2.2952291976    -0.0328012521     0.0017647621
    2      H      -1.8073683938    -0.7835671873    -1.1779519368
    3      H      -1.8079907123    -0.7144955889     1.2229630636
    4      H      -1.7115380945     1.3275767924    -0.0371731751
    5      C      -4.1710525942     0.0531318937    -0.0011561528
    6      H      -4.5344280437     0.6042659310     0.8644036327
    7      H      -4.5340075512     0.5534593526    -0.8972145027
    8      H      -4.6041874934    -0.9451422316     0.0275317327
    9      Si      3.5636406449     0.0165098328     0.0015966756
   10      H       4.1030120970    -0.6924082129    -1.1815597427
   11      H       4.0929234499    -0.6394867312     1.2193263411
   12      H       4.0562224272     1.4128913241    -0.0271219204
   13      C       1.6859842771    -0.0211894928    -0.0054459484
   14      H       1.2860229116     0.4993111582     0.8631098980
   15      H       1.2933272144     0.4606736167    -0.8992617871
   16      H       1.3206618290    -1.0466527586     0.0155008757
 ----------------------------------------------------------------

    3    -660.6459167827      7.97E-06 Convergence criterion met
 Total energy in the final basis set = -660.64591678
        MP2         total energy =                  -661.29527933 au

                    Orbital Energies (a.u.)
 --------------------------------------------------------------

 Alpha MOs
 -- Occupied --
-68.767 -68.764 -11.209 -11.206  -6.116  -6.113  -4.222  -4.222
 -4.221  -4.219  -4.219  -4.219  -0.951  -0.948  -0.702  -0.696
 -0.566  -0.566  -0.563  -0.563  -0.470  -0.470  -0.467  -0.467
 -0.460  -0.449

          Ground-State Mulliken Net Atomic Charges

     Atom                 Charge (a.u.)
  ----------------------------------------
      1 Si                    1.303443
      2 H                    -0.337001
      3 H                    -0.336640
      4 H                    -0.336850
      5 C                    -1.148746
      6 H                     0.277645
      7 H                     0.277513
      8 H                     0.274188
      9 Si                    1.295129
     10 H                    -0.399844
     11 H                    -0.399774
     12 H                    -0.398117
     13 C                    -1.115436
     14 H                     0.346817
     15 H                     0.346041
     16 H                     0.351621
  ----------------------------------------
  Sum of atomic charges =    -0.000011

                    Cartesian Multipole Moments
 -----------------------------------------------------------------
    Charge (ESU x 10^10)
                -0.0001
    Dipole Moment (Debye)
         X      -1.4168      Y       0.0209      Z      -0.0043
       Tot       1.4170
    Quadrupole Moments (Debye-Ang)
        XX     -47.5453     XY      -0.1244     YY     -46.5543
        XZ      -0.0062     YZ      -0.0001     ZZ     -46.5557

 Total job time:  1335.38s(wall), 2716.87s(cpu)
        *  Thank you very much for using Q-Chem.  Have a nice day.  *
