 Q-Chem 5.1, Q-Chem, Inc., Pleasanton, CA (2018)
 Q-Chem 5.1.2 for Intel X86 EM64T Linux

User input:
--------------------------------------------------------------
$molecule
0 1
--
0 1
O     2.682746157     0.252087281     0.000000000
H     3.094283083     1.118876774     0.000000000
H     3.423599950    -0.357576759     0.000000000
--
0 1
Si    -0.121702277     0.015025512     0.000000000
H     0.395520225    -0.662718786    -1.208291248
H     0.395520225    -0.662718786     1.208291248
H     0.318035558     1.428206929     0.000000000
C    -2.004092492    -0.051219771     0.000000000
H    -2.411460252     0.442777464     0.880759883
H    -2.356815244    -1.081456265     0.000000000
H    -2.411460252     0.442777464    -0.880759883
$end

$rem
BASIS = aug-cc-pVTZ
JOB_TYPE  =  BSSE
METHOD  =  MP2
SCF_CONVERGENCE  =  7
SCF_MAX_CYCLES  =  200
$end

--------------------------------------------------------------

             Standard Nuclear Orientation (Angstroms)
    I     Atom           X                Y                Z
 ----------------------------------------------------------------
    1      O       2.4620951503     0.0069111670    -0.0000000000
    2      H       2.9336246366     0.8425825199    -0.0000000000
    3      H       3.1581970030    -0.6533893669     0.0000000000
    4      Si     -0.3520837630    -0.0321573027     0.0000000000
    5      H       0.1161493332    -0.7446278057    -1.2082912480
    6      H       0.1161493332    -0.7446278057     1.2082912480
    7      H       0.1860372385     1.3465656095    -0.0000000000
    8      C      -2.2344678005     0.0342632826    -0.0000000000
    9      H      -2.6060526103     0.5557098179     0.8807598830
   10      H      -2.6588340421    -0.9685895811     0.0000000000
   11      H      -2.6060526103     0.5557098179    -0.8807598830
 ----------------------------------------------------------------

    8    -406.3799413025      4.55E-08 Convergence criterion met
 Total energy in the final basis set = -406.37994130
        MP2         total energy =                  -406.97634762 au

             Orbital Energies (a.u.) and Symmetries
 --------------------------------------------------------------

 Alpha MOs, Restricted
 -- Occupied --
-68.747 -20.575 -11.190  -6.095  -4.201  -4.201  -4.201  -1.363
  1 A'    2 A'    3 A'    4 A'    5 A'    1 A"    6 A'    7 A'
 -0.932  -0.725  -0.686  -0.594  -0.548  -0.548  -0.522  -0.452
  8 A'    9 A'   10 A'   11 A'    2 A"   12 A'    3 A"   13 A'
 -0.448  -0.429
  4 A"   14 A'

 Beta MOs, Restricted
 -- Occupied --
-68.747 -20.575 -11.190  -6.095  -4.201  -4.201  -4.201  -1.363
  1 A'    2 A'    3 A'    4 A'    5 A'    1 A"    6 A'    7 A'
 -0.932  -0.725  -0.686  -0.594  -0.548  -0.548  -0.522  -0.452
  8 A'    9 A'   10 A'   11 A'    2 A"   12 A'    3 A"   13 A'
 -0.448  -0.429
  4 A"   14 A'

          Ground-State Mulliken Net Atomic Charges

     Atom                 Charge (a.u.)
  ----------------------------------------
      1 O                    -0.384836
      2 H                     0.199950
      3 H                     0.158813
      4 Si                    1.368194
      5 H                    -0.319119
      6 H                    -0.319119
      7 H                    -0.347389
      8 C                    -1.166587
      9 H                     0.268107
     10 H                     0.273879
     11 H                     0.268107
  ----------------------------------------
  Sum of atomic charges =     0.000000

                    Cartesian Multipole Moments
 -----------------------------------------------------------------
    Charge (ESU x 10^10)
                 0.0000
    Dipole Moment (Debye)
         X       2.1478      Y       0.2588      Z      -0.0000
       Tot       2.1633
    Quadrupole Moments (Debye-Ang)
        XX     -18.6420     XY       0.5039     YY     -27.9382
        XZ      -0.0000     YZ      -0.0000     ZZ     -31.0549

 Total job time:  404.29s(wall), 767.77s(cpu)
        *  Thank you very much for using Q-Chem.  Have a nice day.  *
