 Q-Chem 5.1, Q-Chem, Inc., Pleasanton, CA (2018)
 Q-Chem 5.1.2 for Intel X86 EM64T Linux

User input:
--------------------------------------------------------------
$molecule
0 1
--
0 1
Si     2.014998435     0.321073490    -0.133289128
H     1.503542539     1.072357510     1.035552051
H     1.215154919    -0.917779499    -0.277040965
H     1.816801357     1.147049434    -1.346132733
C     3.832693717    -0.093902041     0.092465048
H     4.212738567    -0.647371106    -0.764407842
H     3.983063110    -0.702802282     0.982191073
H     4.425687573     0.812791426     0.199197617
--
0 1
Si    -1.622846499    -0.276833478    -0.014846304
H    -1.393077198    -1.446468778    -0.893169565
H    -1.100431068    -0.592357965     1.334153660
H    -0.856514496     0.870573702    -0.554861665
C    -3.452993872     0.137263265     0.066221609
H    -3.627115853     0.998938546     0.708224023
H    -4.021743272    -0.701324627     0.464250995
H    -3.841339993     0.369248899    -0.923933562
$end

$rem
BASIS = aug-cc-pVTZ
JOB_TYPE  =  BSSE
METHOD  =  MP2
SCF_CONVERGENCE  =  8
SCF_MAX_CYCLES  =  200
$end

--------------------------------------------------------------

             Standard Nuclear Orientation (Angstroms)
    I     Atom           X                Y                Z
 ----------------------------------------------------------------
    1      Si     -1.8300546980     0.2584480370     0.0461886641
    2      H      -1.3323185454     0.7777484573    -1.2479482335
    3      H      -0.9943971636    -0.9015757825     0.4350230666
    4      H      -1.6663529656     1.3149263685     1.0706705965
    5      C      -3.6325943320    -0.2494482394    -0.0955082581
    6      H      -4.0024972921    -0.6329541457     0.8537484319
    7      H      -3.7575663349    -1.0275357214    -0.8464707913
    8      H      -4.2517841706     0.5990122365    -0.3815945427
    9      Si      1.8249714220    -0.2376756135     0.0552767899
   10      H       1.6236692495    -1.2157918460     1.1484640970
   11      H       1.3228953363    -0.8313184054    -1.2047955601
   12      H       1.0202025821     0.9698288404     0.3547841749
   13      C       3.6423896487     0.2087152573    -0.1035114518
   14      H       3.7954977282     0.9304553370    -0.9038982502
   15      H       4.2392529082    -0.6741930820    -0.3256826441
   16      H       4.0157926312     0.6449817079     0.8213015582
 ----------------------------------------------------------------

    9    -660.6422094814      8.56E-09 Convergence criterion met
 Total energy in the final basis set = -660.64220948
        MP2         total energy =                  -661.29516141 au

                    Orbital Energies (a.u.)
 --------------------------------------------------------------

 Alpha MOs
 -- Occupied --
-68.763 -68.763 -11.206 -11.205  -6.112  -6.112  -4.218  -4.218
 -4.218  -4.218  -4.218  -4.218  -0.947  -0.947  -0.712  -0.684
 -0.563  -0.563  -0.562  -0.562  -0.476  -0.473  -0.472  -0.460
 -0.452  -0.439

          Ground-State Mulliken Net Atomic Charges

     Atom                 Charge (a.u.)
  ----------------------------------------
      1 Si                    1.571819
      2 H                    -0.362804
      3 H                    -0.316325
      4 H                    -0.384920
      5 C                    -1.301992
      6 H                     0.264202
      7 H                     0.280600
      8 H                     0.249149
      9 Si                    1.582502
     10 H                    -0.382991
     11 H                    -0.359881
     12 H                    -0.318625
     13 C                    -1.310499
     14 H                     0.277866
     15 H                     0.248549
     16 H                     0.263348
  ----------------------------------------
  Sum of atomic charges =     0.000000

                    Cartesian Multipole Moments
 -----------------------------------------------------------------
    Charge (ESU x 10^10)
                 0.0000
    Dipole Moment (Debye)
         X      -0.0030      Y      -0.0251      Z      -0.1047
       Tot       0.1077
    Quadrupole Moments (Debye-Ang)
        XX     -41.4014     XY       0.4932     YY     -46.5706
        XZ      -0.0085     YZ      -0.0042     ZZ     -46.4978

 Total job time:  2200.98s(wall), 4828.47s(cpu)
        *  Thank you very much for using Q-Chem.  Have a nice day.  *
