 Q-Chem 5.1, Q-Chem, Inc., Pleasanton, CA (2018)
 Q-Chem 5.1.2 for Intel X86 EM64T Linux

User input:
--------------------------------------------------------------
$molecule
0 1
Si     3.762272567     0.100944777     0.006072646
H     3.981291986     1.564414477     0.064186564
H     4.389924271    -0.416429655    -1.231422106
H     4.439607953    -0.519141536     1.167849490
C     1.925645521    -0.291305561     0.027271718
H     1.759401550    -1.366486120    -0.015128601
H     1.421772543     0.162315456    -0.824405717
H     1.458679937     0.087942478     0.934592371
Si    -4.350802424    -0.114121248     0.009359389
H    -4.580495745    -1.393023885    -0.701122372
H    -5.154254864     0.938834512    -0.653050793
H    -4.831243730    -0.261117673     1.402440485
C    -2.527205337     0.334338093    -0.014634950
H    -2.352823592     1.274157363     0.506616149
H    -2.168540748     0.443555909    -1.036724224
H    -1.930837036    -0.436563419     0.470037313
$end

$rem
BASIS = aug-cc-pVTZ
JOB_TYPE  =  SP
METHOD  =  MP2
SCF_MAX_CYCLES  =  200
$end

--------------------------------------------------------------

    6    -660.6462126251      3.47e-06  Convergence criterion met
 Total energy in the final basis set =     -660.6462126251
        MP2         total energy =                  -661.29421083 au
 Total job time:  447.30s(wall), 2647.90s(cpu)
        *  Thank you very much for using Q-Chem.  Have a nice day.  *
 Q-Chem 5.1, Q-Chem, Inc., Pleasanton, CA (2018)
 Q-Chem 5.1.2 for Intel X86 EM64T Linux

User input:
--------------------------------------------------------------

$molecule
0 1
Si     3.762272567     0.100944777     0.006072646
H     3.981291986     1.564414477     0.064186564
H     4.389924271    -0.416429655    -1.231422106
H     4.439607953    -0.519141536     1.167849490
C     1.925645521    -0.291305561     0.027271718
H     1.759401550    -1.366486120    -0.015128601
H     1.421772543     0.162315456    -0.824405717
H     1.458679937     0.087942478     0.934592371
@Si   -4.350802424    -0.114121248     0.009359389
@H    -4.580495745    -1.393023885    -0.701122372
@H    -5.154254864     0.938834512    -0.653050793
@H    -4.831243730    -0.261117673     1.402440485
@C    -2.527205337     0.334338093    -0.014634950
@H    -2.352823592     1.274157363     0.506616149
@H    -2.168540748     0.443555909    -1.036724224
@H    -1.930837036    -0.436563419     0.470037313
$end

$rem
BASIS = aug-cc-pVTZ
JOB_TYPE  =  SP
METHOD  =  MP2
SCF_MAX_CYCLES  =  200
$end

--------------------------------------------------------------

    6    -330.3231694662      2.48e-06  Convergence criterion met
 Total energy in the final basis set =     -330.3231694662
        MP2         total energy =                  -330.64685269 au
 Total job time:  402.07s(wall), 2403.44s(cpu)
        *  Thank you very much for using Q-Chem.  Have a nice day.  *
 Q-Chem 5.1, Q-Chem, Inc., Pleasanton, CA (2018)
 Q-Chem 5.1.2 for Intel X86 EM64T Linux

User input:
--------------------------------------------------------------

$molecule
0 1
@Si    3.762272567     0.100944777     0.006072646
@H     3.981291986     1.564414477     0.064186564
@H     4.389924271    -0.416429655    -1.231422106
@H     4.439607953    -0.519141536     1.167849490
@C     1.925645521    -0.291305561     0.027271718
@H     1.759401550    -1.366486120    -0.015128601
@H     1.421772543     0.162315456    -0.824405717
@H     1.458679937     0.087942478     0.934592371
Si   -4.350802424    -0.114121248     0.009359389
H    -4.580495745    -1.393023885    -0.701122372
H    -5.154254864     0.938834512    -0.653050793
H    -4.831243730    -0.261117673     1.402440485
C    -2.527205337     0.334338093    -0.014634950
H    -2.352823592     1.274157363     0.506616149
H    -2.168540748     0.443555909    -1.036724224
H    -1.930837036    -0.436563419     0.470037313
$end

$rem
BASIS = aug-cc-pVTZ
JOB_TYPE  =  SP
METHOD  =  MP2
SCF_MAX_CYCLES  =  200
$end

--------------------------------------------------------------

             Standard Nuclear Orientation (Angstroms)
    I     Atom           X                Y                Z
 ----------------------------------------------------------------
    1      GH      3.7622725670     0.1009447770     0.0060726460
    2      GH      3.9812919860     1.5644144770     0.0641865640
    3      GH      4.3899242710    -0.4164296550    -1.2314221060
    4      GH      4.4396079530    -0.5191415360     1.1678494900
    5      GH      1.9256455210    -0.2913055610     0.0272717180
    6      GH      1.7594015500    -1.3664861200    -0.0151286010
    7      GH      1.4217725430     0.1623154560    -0.8244057170
    8      GH      1.4586799370     0.0879424780     0.9345923710
    9      Si     -4.3508024240    -0.1141212480     0.0093593890
   10      H      -4.5804957450    -1.3930238850    -0.7011223720
   11      H      -5.1542548640     0.9388345120    -0.6530507930
   12      H      -4.8312437300    -0.2611176730     1.4024404850
   13      C      -2.5272053370     0.3343380930    -0.0146349500
   14      H      -2.3528235920     1.2741573630     0.5066161490
   15      H      -2.1685407480     0.4435559090    -1.0367242240
   16      H      -1.9308370360    -0.4365634190     0.4700373130
 ----------------------------------------------------------------

    6    -330.3231660204      2.48e-06  Convergence criterion met
 Total energy in the final basis set =     -330.3231660204
        MP2         total energy =                  -330.64684706 au

                    Orbital Energies (a.u.)
 --------------------------------------------------------------

 Alpha MOs
 -- Occupied --
-68.766 -11.208  -6.115  -4.221  -4.221  -4.220  -0.950  -0.699
 -0.565  -0.565  -0.469  -0.469  -0.455

          Ground-State Mulliken Net Atomic Charges

     Atom                 Charge (a.u.)
  ----------------------------------------
      1 GH                    0.000998
      2 GH                    0.000044
      3 GH                    0.000073
      4 GH                    0.000081
      5 GH                    0.000058
      6 GH                   -0.000723
      7 GH                   -0.000783
      8 GH                   -0.001818
      9 Si                    1.350345
     10 H                    -0.387234
     11 H                    -0.397467
     12 H                    -0.395154
     13 C                    -1.065067
     14 H                     0.293179
     15 H                     0.293113
     16 H                     0.310349
  ----------------------------------------
  Sum of atomic charges =    -0.000005

                    Cartesian Multipole Moments
 -----------------------------------------------------------------
    Charge (ESU x 10^10)
                -0.0000
    Dipole Moment (Debye)
         X       0.6885      Y       0.1706      Z      -0.0099
       Tot       0.7094
    Quadrupole Moments (Debye-Ang)
        XX     -28.7926     XY      -0.7060     YY     -23.2898
        XZ       0.0424     YZ       0.0020     ZZ     -23.2817

 Total job time:  405.99s(wall), 2427.42s(cpu)
        *  Thank you very much for using Q-Chem.  Have a nice day.  *
