 Q-Chem 5.1, Q-Chem, Inc., Pleasanton, CA (2018)
 Q-Chem 5.1.2 for Intel X86 EM64T Linux

User input:
--------------------------------------------------------------
$molecule
0 1
O     3.417192278    -0.078854989     0.000000000
H     3.621539415     0.858418795     0.000000000
H     2.457629173    -0.098605673     0.000000000
Si    -2.397009210    -0.027286458     0.000000000
H    -2.875788496    -0.743796825     1.203009641
H    -2.875788496    -0.743796825    -1.203009641
H    -2.971836465     1.336748532     0.000000000
C    -0.517437241     0.059285626     0.000000000
H    -0.160078377     0.583599742    -0.885246536
H    -0.097479086    -0.946111044     0.000000000
H    -0.160078377     0.583599742     0.885246536
$end

$rem
BASIS = aug-cc-pVTZ
JOB_TYPE  =  SP
METHOD  =  MP2
SCF_MAX_CYCLES  =  200
$end

--------------------------------------------------------------

    7    -406.3837731984      3.65e-06  Convergence criterion met
 Total energy in the final basis set =     -406.3837731984
        MP2         total energy =                  -406.97726009 au
 Total job time:  89.18s(wall), 527.06s(cpu)
        *  Thank you very much for using Q-Chem.  Have a nice day.  *
 Q-Chem 5.1, Q-Chem, Inc., Pleasanton, CA (2018)
 Q-Chem 5.1.2 for Intel X86 EM64T Linux

User input:
--------------------------------------------------------------

$molecule
0 1
O     3.417192278    -0.078854989     0.000000000
H     3.621539415     0.858418795     0.000000000
H     2.457629173    -0.098605673     0.000000000
@Si    -2.397009210    -0.027286458     0.000000000
@H    -2.875788496    -0.743796825     1.203009641
@H    -2.875788496    -0.743796825    -1.203009641
@H    -2.971836465     1.336748532     0.000000000
@C    -0.517437241     0.059285626     0.000000000
@H    -0.160078377     0.583599742    -0.885246536
@H    -0.097479086    -0.946111044     0.000000000
@H    -0.160078377     0.583599742     0.885246536
$end

$rem
BASIS = aug-cc-pVTZ
JOB_TYPE  =  SP
METHOD  =  MP2
SCF_MAX_CYCLES  =  200
$end

--------------------------------------------------------------

    6     -76.0603926217      5.40e-06  Convergence criterion met
 Total energy in the final basis set =      -76.0603926217
        MP2         total energy =                   -76.32919685 au
 Total job time:  81.47s(wall), 487.76s(cpu)
        *  Thank you very much for using Q-Chem.  Have a nice day.  *
 Q-Chem 5.1, Q-Chem, Inc., Pleasanton, CA (2018)
 Q-Chem 5.1.2 for Intel X86 EM64T Linux

User input:
--------------------------------------------------------------

$molecule
0 1
@O     3.417192278    -0.078854989     0.000000000
@H     3.621539415     0.858418795     0.000000000
@H     2.457629173    -0.098605673     0.000000000
Si    -2.397009210    -0.027286458     0.000000000
H    -2.875788496    -0.743796825     1.203009641
H    -2.875788496    -0.743796825    -1.203009641
H    -2.971836465     1.336748532     0.000000000
C    -0.517437241     0.059285626     0.000000000
H    -0.160078377     0.583599742    -0.885246536
H    -0.097479086    -0.946111044     0.000000000
H    -0.160078377     0.583599742     0.885246536
$end

$rem
BASIS = aug-cc-pVTZ
JOB_TYPE  =  SP
METHOD  =  MP2
SCF_MAX_CYCLES  =  200
$end

--------------------------------------------------------------

             Standard Nuclear Orientation (Angstroms)
    I     Atom           X                Y                Z
 ----------------------------------------------------------------
    1      GH      3.4171922780    -0.0788549890     0.0000000000
    2      GH      3.6215394150     0.8584187950     0.0000000000
    3      GH      2.4576291730    -0.0986056730     0.0000000000
    4      Si     -2.3970092100    -0.0272864580     0.0000000000
    5      H      -2.8757884960    -0.7437968250     1.2030096410
    6      H      -2.8757884960    -0.7437968250    -1.2030096410
    7      H      -2.9718364650     1.3367485320     0.0000000000
    8      C      -0.5174372410     0.0592856260     0.0000000000
    9      H      -0.1600783770     0.5835997420    -0.8852465360
   10      H      -0.0974790860    -0.9461110440     0.0000000000
   11      H      -0.1600783770     0.5835997420     0.8852465360
 ----------------------------------------------------------------

    6    -330.3230973488      3.54e-06  Convergence criterion met
 Total energy in the final basis set =     -330.3230973488
        MP2         total energy =                  -330.64686078 au

                    Orbital Energies (a.u.)
 --------------------------------------------------------------

 Alpha MOs
 -- Occupied --
-68.765 -11.208  -6.114  -4.221  -4.221  -4.220  -0.949  -0.699
 -0.566  -0.565  -0.470  -0.469  -0.452

          Ground-State Mulliken Net Atomic Charges

     Atom                 Charge (a.u.)
  ----------------------------------------
      1 GH                   -0.001212
      2 GH                    0.000098
      3 GH                    0.001210
      4 Si                    1.321321
      5 H                    -0.383311
      6 H                    -0.383311
      7 H                    -0.392546
      8 C                    -1.036345
      9 H                     0.293177
     10 H                     0.287741
     11 H                     0.293177
  ----------------------------------------
  Sum of atomic charges =    -0.000000

                    Cartesian Multipole Moments
 -----------------------------------------------------------------
    Charge (ESU x 10^10)
                -0.0000
    Dipole Moment (Debye)
         X       0.6611      Y       0.0242      Z      -0.0000
       Tot       0.6615
    Quadrupole Moments (Debye-Ang)
        XX     -26.0571     XY      -0.0526     YY     -23.2677
        XZ       0.0000     YZ      -0.0000     ZZ     -23.2546

 Total job time:  87.69s(wall), 522.61s(cpu)
        *  Thank you very much for using Q-Chem.  Have a nice day.  *
