 Q-Chem 5.1, Q-Chem, Inc., Pleasanton, CA (2018)
 Q-Chem 5.1.2 for Intel X86 EM64T Linux

User input:
--------------------------------------------------------------
$molecule
0 1
--
0 1
Si     2.173201226     0.002277085    -0.000827763
H     2.463893195     1.428917805     0.248702748
H     1.532427706    -0.146056866    -1.323881333
H     1.257386864    -0.502442133     1.043232525
H     3.430773868    -0.772002931     0.029153171
--
0 1
Si    -2.516455261    -0.002798421     0.000940323
H    -1.993688443     0.362991722    -1.331703417
H    -2.189938507    -1.414829448     0.287128886
H    -3.982189466     0.180640040     0.022676422
H    -1.895373116     0.862701846     1.024887349
$end

$rem
BASIS = aug-cc-pVTZ
JOB_TYPE  =  BSSE
METHOD  =  MP2
SCF_CONVERGENCE  =  7
SCF_MAX_CYCLES  =  200
$end

--------------------------------------------------------------

             Standard Nuclear Orientation (Angstroms)
    I     Atom           X                Y                Z
 ----------------------------------------------------------------
    1      Si      2.3449322680     0.0000682954    -0.0000653996
    2      H       2.6370033863     1.4390556104     0.1614307610
    3      H       1.7044670364    -0.2286575016    -1.3117639972
    4      H       1.4282364729    -0.4386079186     1.0726653765
    5      H       3.6016980186    -0.7721679579     0.0779625875
    6      Si     -2.3447272898    -0.0001788337     0.0000864094
    7      H      -1.8211211715     0.2824892165    -1.3523049240
    8      H      -2.0197614359    -1.3922782672     0.3726519294
    9      H      -3.8102796773     0.1857207889     0.0099056004
   10      H      -1.7231123241     0.9259935665     0.9691585298
 ----------------------------------------------------------------

    5    -582.5215491254      5.54E-08 Convergence criterion met
 Total energy in the final basis set = -582.52154913
        MP2         total energy =                  -582.81431467 au

                    Orbital Energies (a.u.)
 --------------------------------------------------------------

 Alpha MOs
 -- Occupied --
-68.775 -68.774  -6.124  -6.124  -4.230  -4.230  -4.230  -4.230
 -4.230  -4.230  -0.734  -0.730  -0.491  -0.490  -0.488  -0.486
 -0.484  -0.483

          Ground-State Mulliken Net Atomic Charges

     Atom                 Charge (a.u.)
  ----------------------------------------
      1 Si                    1.541403
      2 H                    -0.391869
      3 H                    -0.373894
      4 H                    -0.365132
      5 H                    -0.410658
      6 Si                    1.464760
      7 H                    -0.352445
      8 H                    -0.362423
      9 H                    -0.411044
     10 H                    -0.338700
  ----------------------------------------
  Sum of atomic charges =     0.000000

                    Cartesian Multipole Moments
 -----------------------------------------------------------------
    Charge (ESU x 10^10)
                 0.0000
    Dipole Moment (Debye)
         X       0.0233      Y      -0.0085      Z       0.0035
       Tot       0.0251
    Quadrupole Moments (Debye-Ang)
        XX     -33.3904     XY       0.0320     YY     -33.5224
        XZ      -0.0064     YZ      -0.0010     ZZ     -33.4951

 Total job time:  218.46s(wall), 433.36s(cpu)
        *  Thank you very much for using Q-Chem.  Have a nice day.  *
