 Q-Chem 5.1, Q-Chem, Inc., Pleasanton, CA (2018)
 Q-Chem 5.1.2 for Intel X86 EM64T Linux

User input:
--------------------------------------------------------------
$molecule
0 1
--
0 1
Si     2.173201226     0.002277085    -0.000827763
H     2.463893195     1.428917805     0.248702748
H     1.532427706    -0.146056866    -1.323881333
H     1.257386864    -0.502442133     1.043232525
H     3.430773868    -0.772002931     0.029153171
--
0 1
Si    -5.460081814    -0.005917726     0.002024803
H    -4.937314996     0.359872417    -1.330618937
H    -5.133565060    -1.417948753     0.288213366
H    -6.925816019     0.177520735     0.023760902
H    -4.838999669     0.859582540     1.025971829
$end

$rem
BASIS = aug-cc-pVTZ
JOB_TYPE  =  BSSE
METHOD  =  MP2
!SCF_CONVERGENCE  =  7
SCF_MAX_CYCLES  =  200
$end

--------------------------------------------------------------

             Standard Nuclear Orientation (Angstroms)
    I     Atom           X                Y                Z
 ----------------------------------------------------------------
    1      Si      3.8167464719     0.0000558974    -0.0000520928
    2      H       4.1088373268     1.4390380696     0.1614541960
    3      H       3.1762936937    -0.2286542392    -1.3117595016
    4      H       2.9000310587    -0.4386114067     1.0726655621
    5      H       5.0734996339    -0.7721996604     0.0779875948
    6      Si     -3.8165414956    -0.0001664389     0.0000731045
    7      H      -3.2929147209     0.2824999081    -1.3523105872
    8      H      -3.4916011460    -1.3922724769     0.3726361912
    9      H      -5.2820911992     0.1857552339     0.0098753798
   10      H      -3.1949243149     0.9259921525     0.9691570005
 ----------------------------------------------------------------

    2    -582.5217279244      3.92E-06 Convergence criterion met
 Total energy in the final basis set = -582.52172792
        MP2         total energy =                  -582.81332388 au

                    Orbital Energies (a.u.)
 --------------------------------------------------------------

 Alpha MOs
 -- Occupied --
-68.774 -68.774  -6.124  -6.124  -4.230  -4.230  -4.230  -4.230
 -4.230  -4.230  -0.732  -0.731  -0.487  -0.487  -0.487  -0.487
 -0.486  -0.486

          Ground-State Mulliken Net Atomic Charges

     Atom                 Charge (a.u.)
  ----------------------------------------
      1 Si                    1.613801
      2 H                    -0.402172
      3 H                    -0.404001
      4 H                    -0.402833
      5 H                    -0.404867
      6 Si                    1.615039
      7 H                    -0.402415
      8 H                    -0.401511
      9 H                    -0.408145
     10 H                    -0.402896
  ----------------------------------------
  Sum of atomic charges =    -0.000000

                    Cartesian Multipole Moments
 -----------------------------------------------------------------
    Charge (ESU x 10^10)
                -0.0000
    Dipole Moment (Debye)
         X       0.0064      Y      -0.0030      Z       0.0007
       Tot       0.0071
    Quadrupole Moments (Debye-Ang)
        XX     -33.3999     XY       0.0171     YY     -33.5323
        XZ      -0.0068     YZ      -0.0002     ZZ     -33.5384

 Total job time:  94.71s(wall), 168.02s(cpu)
        *  Thank you very much for using Q-Chem.  Have a nice day.  *
