 Q-Chem 5.1, Q-Chem, Inc., Pleasanton, CA (2018)
 Q-Chem 5.1.2 for Intel X86 EM64T Linux

User input:
--------------------------------------------------------------
$molecule
0 1
--
0 1
Si    -2.355587420     0.000852678    -0.001125865
H    -2.728992107     0.287798069    -1.400983250
H    -2.856535997     1.078823011     0.875456972
H    -0.884338632    -0.075218668     0.107530826
H    -2.944965592    -1.288253407     0.413844090
--
0 1
Si     2.178327889    -0.000808713     0.001094306
H     1.621011455     0.252316292    -1.343482274
H     1.701099792     1.038884151     0.935908683
H     3.653968850     0.035278137    -0.063475948
H     1.738650383    -1.329287863     0.474761204
$end

$rem
BASIS = aug-cc-pVTZ
JOB_TYPE  =  BSSE
METHOD  =  MP2
SCF_CONVERGENCE  =  7
SCF_MAX_CYCLES  =  200
$end

--------------------------------------------------------------

             Standard Nuclear Orientation (Angstroms)
    I     Atom           X                Y                Z
 ----------------------------------------------------------------
    1      Si     -2.2672063020     0.0000230048    -0.0000376341
    2      H      -2.6413696992     0.2397003779    -1.4085566879
    3      H      -2.7681244720     1.1066356146     0.8401150334
    4      H      -0.7958798442    -0.0718619961     0.1104029539
    5      H      -2.8559335840    -1.2746291812     0.4582452301
    6      Si      2.2667098537    -0.0000316863     0.0000555831
    7      H       1.7086726596     0.2076375059    -1.3519902932
    8      H       1.7895530399     1.0702873238     0.8996801821
    9      H       3.7423074780     0.0343661805    -0.0663993793
   10      H       1.8277246981    -1.3120142838     0.5182516739
 ----------------------------------------------------------------

    6    -582.5207423820      4.07E-08 Convergence criterion met
 Total energy in the final basis set = -582.52074238
        MP2         total energy =                  -582.81450740 au

                    Orbital Energies (a.u.)
 --------------------------------------------------------------

 Alpha MOs
 -- Occupied --
-68.776 -68.773  -6.125  -6.122  -4.231  -4.231  -4.231  -4.228
 -4.228  -4.228  -0.736  -0.728  -0.499  -0.488  -0.488  -0.485
 -0.485  -0.475

          Ground-State Mulliken Net Atomic Charges

     Atom                 Charge (a.u.)
  ----------------------------------------
      1 Si                    1.684518
      2 H                    -0.411954
      3 H                    -0.423015
      4 H                    -0.377533
      5 H                    -0.428716
      6 Si                    1.697349
      7 H                    -0.360252
      8 H                    -0.362831
      9 H                    -0.651058
     10 H                    -0.366508
  ----------------------------------------
  Sum of atomic charges =    -0.000000

                    Cartesian Multipole Moments
 -----------------------------------------------------------------
    Charge (ESU x 10^10)
                 0.0000
    Dipole Moment (Debye)
         X      -0.1071      Y      -0.0015      Z       0.0013
       Tot       0.1071
    Quadrupole Moments (Debye-Ang)
        XX     -33.5903     XY      -0.0083     YY     -33.5017
        XZ       0.0143     YZ       0.0002     ZZ     -33.5002

 Total job time:  203.90s(wall), 419.35s(cpu)
        *  Thank you very much for using Q-Chem.  Have a nice day.  *
