 Q-Chem 5.1, Q-Chem, Inc., Pleasanton, CA (2018)
 Q-Chem 5.1.2 for Intel X86 EM64T Linux

User input:
--------------------------------------------------------------
$molecule
0 1
--
0 1
O     1.993924319     0.222020423    -0.365391964
H     2.143343877     1.158326366    -0.214403173
H     2.400388308    -0.198991600     0.395963117
--
0 1
Si    -1.257568870    -0.186397601     0.136196625
H    -2.703214063    -0.411648572     0.365573363
H    -0.919351493     1.163917778     0.631083055
H    -0.984620690    -0.291041790    -1.307659380
H    -0.504260855    -1.205870655     0.892075686
$end

$rem
BASIS = aug-cc-pVTZ
JOB_TYPE  =  BSSE
METHOD  =  MP2
SCF_CONVERGENCE  =  7
SCF_MAX_CYCLES  =  200
$end

--------------------------------------------------------------

             Standard Nuclear Orientation (Angstroms)
    I     Atom           X                Y                Z
 ----------------------------------------------------------------
    1      O       2.1147602673     0.0026373702    -0.1135082900
    2      H       2.3726060826     0.7445001034     0.4387125525
    3      H       2.3651925806    -0.7653950789     0.4056597664
    4      Si     -1.1984365605     0.0000010435     0.0019221340
    5      H      -2.6782950454    -0.0426702555     0.0398659966
    6      H      -0.7391041215     0.9309655556     1.0530995611
    7      H      -0.7715690706     0.4701375763    -1.3273359542
    8      H      -0.6888007174    -1.3586514717     0.2711545218
 ----------------------------------------------------------------

    7    -367.3217959533      8.78E-08 Convergence criterion met
 Total energy in the final basis set = -367.32179595
        MP2         total energy =                  -367.73820706 au

                    Orbital Energies (a.u.)
 --------------------------------------------------------------

 Alpha MOs
 -- Occupied --
-68.764 -20.574  -6.113  -4.219  -4.219  -4.219  -1.360  -0.721
 -0.720  -0.594  -0.521  -0.478  -0.477  -0.469

          Ground-State Mulliken Net Atomic Charges

     Atom                 Charge (a.u.)
  ----------------------------------------
      1 O                    -0.445247
      2 H                     0.221512
      3 H                     0.220651
      4 Si                    1.597216
      5 H                    -0.557150
      6 H                    -0.352263
      7 H                    -0.335599
      8 H                    -0.349120
  ----------------------------------------
  Sum of atomic charges =    -0.000000

                    Cartesian Multipole Moments
 -----------------------------------------------------------------
    Charge (ESU x 10^10)
                 0.0000
    Dipole Moment (Debye)
         X       1.2840      Y      -0.0370      Z       1.6426
       Tot       2.0852
    Quadrupole Moments (Debye-Ang)
        XX     -20.9968     XY      -0.1021     YY     -21.1883
        XZ       4.5384     YZ       0.0280     ZZ     -23.3264

 Total job time:  107.22s(wall), 221.79s(cpu)
        *  Thank you very much for using Q-Chem.  Have a nice day.  *
