 Q-Chem 5.1, Q-Chem, Inc., Pleasanton, CA (2018)
 Q-Chem 5.1.2 for Intel X86 EM64T Linux

User input:
--------------------------------------------------------------
$molecule
0 1
--
0 1
Si     2.173201226     0.002277085    -0.000827763
H     2.463893195     1.428917805     0.248702748
H     1.532427706    -0.146056866    -1.323881333
H     1.257386864    -0.502442133     1.043232525
H     3.430773868    -0.772002931     0.029153171
--
0 1
Si    -2.345429181    -0.002617188     0.000877314
H    -1.822662362     0.363172955    -1.331766426
H    -2.018912427    -1.414648215     0.287065877
H    -3.811163386     0.180821273     0.022613413
H    -1.724347035     0.862883079     1.024824340
$end

$rem
BASIS = aug-cc-pVTZ
JOB_TYPE  =  BSSE
METHOD  =  MP2
SCF_CONVERGENCE  =  8
SCF_MAX_CYCLES  =  200
$end

--------------------------------------------------------------

             Standard Nuclear Orientation (Angstroms)
    I     Atom           X                Y                Z
 ----------------------------------------------------------------
    1      Si      2.2594191740     0.0000695123    -0.0000667057
    2      H       2.5514880770     1.4390574040     0.1614283232
    3      H       1.6189524610    -0.2286580251    -1.3117642765
    4      H       1.3427256538    -0.4386077263     1.0726655954
    5      H       3.5161863482    -0.7721645664     0.0779598734
    6      Si     -2.2592141957    -0.0001800503     0.0000877152
    7      H      -1.7356104849     0.2824882176    -1.3523045052
    8      H      -1.9342454448    -1.3922787463     0.3726534639
    9      H      -3.7247668851     0.1857170866     0.0099089034
   10      H      -1.6375994213     0.9259938880     0.9691584890
 ----------------------------------------------------------------

    7    -582.5213762246      3.15E-09 Convergence criterion met
 Total energy in the final basis set = -582.52137622
        MP2         total energy =                  -582.81447252 au

                    Orbital Energies (a.u.)
 --------------------------------------------------------------

 Alpha MOs
 -- Occupied --
-68.775 -68.774  -6.124  -6.124  -4.230  -4.230  -4.230  -4.230
 -4.230  -4.230  -0.734  -0.729  -0.492  -0.491  -0.488  -0.486
 -0.483  -0.482

          Ground-State Mulliken Net Atomic Charges

     Atom                 Charge (a.u.)
  ----------------------------------------
      1 Si                    1.535446
      2 H                    -0.391232
      3 H                    -0.371079
      4 H                    -0.358473
      5 H                    -0.412654
      6 Si                    1.451419
      7 H                    -0.345410
      8 H                    -0.357359
      9 H                    -0.418728
     10 H                    -0.331930
  ----------------------------------------
  Sum of atomic charges =    -0.000000

                    Cartesian Multipole Moments
 -----------------------------------------------------------------
    Charge (ESU x 10^10)
                -0.0000
    Dipole Moment (Debye)
         X       0.0266      Y      -0.0097      Z       0.0041
       Tot       0.0286
    Quadrupole Moments (Debye-Ang)
        XX     -33.4074     XY       0.0360     YY     -33.5190
        XZ      -0.0072     YZ      -0.0011     ZZ     -33.4815

 Total job time:  235.62s(wall), 485.29s(cpu)
        *  Thank you very much for using Q-Chem.  Have a nice day.  *
