 Q-Chem 5.1, Q-Chem, Inc., Pleasanton, CA (2018)
 Q-Chem 5.1.2 for Intel X86 EM64T Linux

User input:
--------------------------------------------------------------
$molecule
0 1
--
0 1
O     1.993924319     0.222020423    -0.365391964
H     2.143343877     1.158326366    -0.214403173
H     2.400388308    -0.198991600     0.395963117
--
0 1
Si    -2.644287933    -0.370955638     0.326860140
H    -4.089933126    -0.596206610     0.556236878
H    -2.306070555     0.979359740     0.821746570
H    -2.371339753    -0.475599827    -1.116995865
H    -1.890979918    -1.390428692     1.082739201
$end

$rem
BASIS = aug-cc-pVTZ
JOB_TYPE  =  BSSE
METHOD  =  MP2
SCF_CONVERGENCE  =  7
SCF_MAX_CYCLES  =  200
$end

--------------------------------------------------------------

             Standard Nuclear Orientation (Angstroms)
    I     Atom           X                Y                Z
 ----------------------------------------------------------------
    1      O       3.0229434207     0.0026384255    -0.1118563911
    2      H       3.2777665780     0.7444529245     0.4418303848
    3      H       3.2703772036    -0.7654402204     0.4086792695
    4      Si     -1.7026392506     0.0000052639     0.0008732062
    5      H      -3.1826918638    -0.0425089386     0.0305129938
    6      H      -1.2491115238     0.9308813348     1.0546462060
    7      H      -1.2682712099     0.4701456822    -1.3259514509
    8      H      -1.1946670417    -1.3587118802     0.2729088390
 ----------------------------------------------------------------

    6    -367.3214310114      7.96E-08 Convergence criterion met
 Total energy in the final basis set = -367.32143101
        MP2         total energy =                  -367.73612843 au

                    Orbital Energies (a.u.)
 --------------------------------------------------------------

 Alpha MOs
 -- Occupied --
-68.769 -20.570  -6.118  -4.224  -4.224  -4.224  -1.354  -0.726
 -0.716  -0.588  -0.512  -0.484  -0.482  -0.478

          Ground-State Mulliken Net Atomic Charges

     Atom                 Charge (a.u.)
  ----------------------------------------
      1 O                    -0.443560
      2 H                     0.222736
      3 H                     0.222938
      4 Si                    1.596643
      5 H                    -0.440759
      6 H                    -0.394013
      7 H                    -0.377889
      8 H                    -0.386097
  ----------------------------------------
  Sum of atomic charges =    -0.000000

                    Cartesian Multipole Moments
 -----------------------------------------------------------------
    Charge (ESU x 10^10)
                -0.0000
    Dipole Moment (Debye)
         X       1.0504      Y      -0.0419      Z       1.7186
       Tot       2.0146
    Quadrupole Moments (Debye-Ang)
        XX     -19.4785     XY      -0.1392     YY     -21.0645
        XZ       6.1938     YZ       0.0299     ZZ     -23.2369

 Total job time:  85.76s(wall), 172.70s(cpu)
        *  Thank you very much for using Q-Chem.  Have a nice day.  *
