 Q-Chem 5.1, Q-Chem, Inc., Pleasanton, CA (2018)
 Q-Chem 5.1.2 for Intel X86 EM64T Linux

User input:
--------------------------------------------------------------
$molecule
0 1
--
0 1
Si    -2.355587420     0.000852678    -0.001125865
H    -2.728992107     0.287798069    -1.400983250
H    -2.856535997     1.078823011     0.875456972
H    -0.884338632    -0.075218668     0.107530826
H    -2.944965592    -1.288253407     0.413844090
--
0 1
Si     2.355172104    -0.000872677     0.001179661
H     1.797855670     0.252252328    -1.343396918
H     1.877944006     1.038820188     0.935994038
H     3.830813065     0.035214173    -0.063390593
H     1.915494598    -1.329351826     0.474846559
$end

$rem
BASIS = aug-cc-pVTZ
JOB_TYPE  =  BSSE
METHOD  =  MP2
SCF_CONVERGENCE  =  8
SCF_MAX_CYCLES  =  200
$end

--------------------------------------------------------------

             Standard Nuclear Orientation (Angstroms)
    I     Atom           X                Y                Z
 ----------------------------------------------------------------
    1      Si     -2.3556284256     0.0000226564    -0.0000369655
    2      H      -2.7297930335     0.2396985117    -1.4085559560
    3      H      -2.8565464128     1.1066358590     0.8401150301
    4      H      -0.8843018499    -0.0718616029     0.1104025351
    5      H      -2.9443547971    -1.2746293425     0.4582475888
    6      Si      2.3551319774    -0.0000313383     0.0000549149
    7      H       1.7970936307     0.2076363112    -1.3519907217
    8      H       1.8779754077     1.0702883332     0.8996788583
    9      H       3.8307295346     0.0343671016    -0.0664012405
   10      H       1.9161477954    -1.3120136253     0.5182526141
 ----------------------------------------------------------------

    7    -582.5212297848      6.64E-09 Convergence criterion met
 Total energy in the final basis set = -582.52122978
        MP2         total energy =                  -582.81449908 au

                    Orbital Energies (a.u.)
 --------------------------------------------------------------

 Alpha MOs
 -- Occupied --
-68.775 -68.773  -6.125  -6.123  -4.231  -4.231  -4.231  -4.229
 -4.229  -4.229  -0.735  -0.729  -0.496  -0.488  -0.488  -0.485
 -0.485  -0.478

          Ground-State Mulliken Net Atomic Charges

     Atom                 Charge (a.u.)
  ----------------------------------------
      1 Si                    1.676494
      2 H                    -0.412239
      3 H                    -0.421890
      4 H                    -0.370101
      5 H                    -0.427020
      6 Si                    1.661375
      7 H                    -0.364934
      8 H                    -0.368174
      9 H                    -0.602190
     10 H                    -0.371321
  ----------------------------------------
  Sum of atomic charges =     0.000000

                    Cartesian Multipole Moments
 -----------------------------------------------------------------
    Charge (ESU x 10^10)
                 0.0000
    Dipole Moment (Debye)
         X      -0.0901      Y      -0.0011      Z       0.0009
       Tot       0.0902
    Quadrupole Moments (Debye-Ang)
        XX     -33.5447     XY      -0.0071     YY     -33.5092
        XZ       0.0120     YZ       0.0002     ZZ     -33.5079

 Total job time:  237.70s(wall), 468.56s(cpu)
        *  Thank you very much for using Q-Chem.  Have a nice day.  *
