 Q-Chem 5.1, Q-Chem, Inc., Pleasanton, CA (2018)
 Q-Chem 5.1.2 for Intel X86 EM64T Linux

User input:
--------------------------------------------------------------
$molecule
0 1
--
0 1
Si    -2.355587420     0.000852678    -0.001125865
H    -2.728992107     0.287798069    -1.400983250
H    -2.856535997     1.078823011     0.875456972
H    -0.884338632    -0.075218668     0.107530826
H    -2.944965592    -1.288253407     0.413844090
--
0 1
Si     5.624383824    -0.002055132     0.002757570
H     5.067067390     0.251069873    -1.341819010
H     5.147155726     1.037637732     0.937571947
H     7.100024785     0.034031717    -0.061812685
H     5.184706318    -1.330534282     0.476424467
$end

$rem
BASIS = aug-cc-pVTZ
JOB_TYPE  =  BSSE
METHOD  =  MP2
SCF_CONVERGENCE  =  7
SCF_MAX_CYCLES  =  200
$end

--------------------------------------------------------------

             Standard Nuclear Orientation (Angstroms)
    I     Atom           X                Y                Z
 ----------------------------------------------------------------
    1      Si     -3.9902345831     0.0000189991    -0.0000299443
    2      H      -4.3644098564     0.2397060421    -1.4085441978
    3      H      -4.4911510026     1.1066227503     0.8401354347
    4      H      -2.5189069676    -0.0718606054     0.1103987317
    5      H      -4.5789528936    -1.2746393656     0.4582472599
    6      Si      3.9897381351    -0.0000276828     0.0000478973
    7      H       3.4316896367     0.2076499429    -1.3519920180
    8      H       3.5125836839     1.0702820945     0.8996847344
    9      H       5.4653351005     0.0343770127    -0.0664181608
   10      H       3.5507625719    -1.3120162991     0.5182368748
 ----------------------------------------------------------------

    4    -582.5217336336      9.58E-08 Convergence criterion met
 Total energy in the final basis set = -582.52173363
        MP2         total energy =                  -582.81332686 au

                    Orbital Energies (a.u.)
 --------------------------------------------------------------

 Alpha MOs
 -- Occupied --
-68.774 -68.774  -6.124  -6.124  -4.230  -4.230  -4.230  -4.230
 -4.230  -4.230  -0.732  -0.731  -0.487  -0.487  -0.487  -0.487
 -0.486  -0.486

          Ground-State Mulliken Net Atomic Charges

     Atom                 Charge (a.u.)
  ----------------------------------------
      1 Si                    1.603498
      2 H                    -0.408795
      3 H                    -0.406612
      4 H                    -0.382599
      5 H                    -0.405034
      6 Si                    1.620365
      7 H                    -0.402674
      8 H                    -0.402511
      9 H                    -0.413255
     10 H                    -0.402383
  ----------------------------------------
  Sum of atomic charges =     0.000000

                    Cartesian Multipole Moments
 -----------------------------------------------------------------
    Charge (ESU x 10^10)
                 0.0000
    Dipole Moment (Debye)
         X      -0.0163      Y      -0.0003      Z       0.0004
       Tot       0.0163
    Quadrupole Moments (Debye-Ang)
        XX     -33.4792     XY      -0.0037     YY     -33.5302
        XZ       0.0058     YZ       0.0000     ZZ     -33.5305

 Total job time:  108.48s(wall), 197.76s(cpu)
        *  Thank you very much for using Q-Chem.  Have a nice day.  *
