 Q-Chem 5.1, Q-Chem, Inc., Pleasanton, CA (2018)
 Q-Chem 5.1.2 for Intel X86 EM64T Linux

User input:
--------------------------------------------------------------
$molecule
0 1
--
0 1
O     1.993924319     0.222020423    -0.365391964
H     2.143343877     1.158326366    -0.214403173
H     2.400388308    -0.198991600     0.395963117
--
0 1
Si    -4.158260396    -0.572449794     0.535020046
H    -5.603905589    -0.797700765     0.764396785
H    -3.820043018     0.777865585     1.029906477
H    -3.885312216    -0.677093982    -0.908835958
H    -3.404952381    -1.591922847     1.290899108
$end

$rem
BASIS = aug-cc-pVTZ
JOB_TYPE  =  BSSE
METHOD  =  MP2
SCF_CONVERGENCE  =  7
SCF_MAX_CYCLES  =  200
$end

--------------------------------------------------------------

             Standard Nuclear Orientation (Angstroms)
    I     Atom           X                Y                Z
 ----------------------------------------------------------------
    1      O       4.0141603902     0.0026398035    -0.1109039542
    2      H       4.2673581218     0.7444270804     0.4435644243
    3      H       4.2599766560    -0.7654649119     0.4103590953
    4      Si     -2.2531304069     0.0000072068     0.0002743510
    5      H      -3.7332682536    -0.0424172608     0.0254503648
    6      H      -1.8027253674     0.9308333902     1.0554298437
    7      H      -1.8147349518     0.4701490554    -1.3252245522
    8      H      -1.7460636299    -1.3587466767     0.2738115433
 ----------------------------------------------------------------

    6    -367.3211297449      2.82E-08 Convergence criterion met
 Total energy in the final basis set = -367.32112974
        MP2         total energy =                  -367.73560952 au

                    Orbital Energies (a.u.)
 --------------------------------------------------------------

 Alpha MOs
 -- Occupied --
-68.771 -20.569  -6.121  -4.227  -4.227  -4.227  -1.353  -0.729
 -0.715  -0.587  -0.511  -0.486  -0.485  -0.480

          Ground-State Mulliken Net Atomic Charges

     Atom                 Charge (a.u.)
  ----------------------------------------
      1 O                    -0.447363
      2 H                     0.223424
      3 H                     0.223688
      4 Si                    1.610687
      5 H                    -0.425416
      6 H                    -0.400877
      7 H                    -0.388167
      8 H                    -0.395975
  ----------------------------------------
  Sum of atomic charges =    -0.000000

                    Cartesian Multipole Moments
 -----------------------------------------------------------------
    Charge (ESU x 10^10)
                -0.0000
    Dipole Moment (Debye)
         X       0.9838      Y      -0.0432      Z       1.7509
       Tot       2.0089
    Quadrupole Moments (Debye-Ang)
        XX     -17.8995     XY      -0.1818     YY     -21.0367
        XZ       7.9967     YZ       0.0327     ZZ     -23.2136

 Total job time:  64.63s(wall), 125.81s(cpu)
        *  Thank you very much for using Q-Chem.  Have a nice day.  *
