 Q-Chem 5.1, Q-Chem, Inc., Pleasanton, CA (2018)
 Q-Chem 5.1.2 for Intel X86 EM64T Linux

User input:
--------------------------------------------------------------
$molecule
0 1
--
0 1
Si     2.173201226     0.002277085    -0.000827763
H     2.463893195     1.428917805     0.248702748
H     1.532427706    -0.146056866    -1.323881333
H     1.257386864    -0.502442133     1.043232525
H     3.430773868    -0.772002931     0.029153171
--
0 1
Si    -2.854337991    -0.003156469     0.001064805
H    -2.331571173     0.362633674    -1.331578935
H    -2.527821237    -1.415187496     0.287253367
H    -4.320072196     0.180281992     0.022800903
H    -2.233255846     0.862343798     1.025011830
$end

$rem
BASIS = aug-cc-pVTZ
JOB_TYPE  =  BSSE
METHOD  =  MP2
SCF_CONVERGENCE  =  8
SCF_MAX_CYCLES  =  200
$end

--------------------------------------------------------------

             Standard Nuclear Orientation (Angstroms)
    I     Atom           X                Y                Z
 ----------------------------------------------------------------
    1      Si      2.5138737396     0.0000661346    -0.0000630805
    2      H       2.8059486689     1.4390524606     0.1614349994
    3      H       1.8734110243    -0.2286566885    -1.3117634253
    4      H       1.5971740588    -0.4386083040     1.0726651012
    5      H       3.7706370451    -0.7721738552     0.0779673082
    6      Si     -2.5136687618    -0.0001766735     0.0000840908
    7      H      -1.9900585346     0.2824909847    -1.3523057337
    8      H      -2.1887078785    -1.3922773695     0.3726492280
    9      H      -3.9792206301     0.1857272215     0.0098998793
   10      H      -1.8920534434     0.9259930959     0.9691584983
 ----------------------------------------------------------------

    6    -582.5216998810      7.17E-09 Convergence criterion met
 Total energy in the final basis set = -582.52169988
        MP2         total energy =                  -582.81401931 au

                    Orbital Energies (a.u.)
 --------------------------------------------------------------

 Alpha MOs
 -- Occupied --
-68.775 -68.774  -6.124  -6.124  -4.230  -4.230  -4.230  -4.230
 -4.230  -4.230  -0.733  -0.731  -0.489  -0.488  -0.487  -0.486
 -0.485  -0.485

          Ground-State Mulliken Net Atomic Charges

     Atom                 Charge (a.u.)
  ----------------------------------------
      1 Si                    1.554703
      2 H                    -0.393679
      3 H                    -0.379083
      4 H                    -0.375449
      5 H                    -0.408537
      6 Si                    1.522862
      7 H                    -0.369843
      8 H                    -0.375542
      9 H                    -0.417348
     10 H                    -0.358084
  ----------------------------------------
  Sum of atomic charges =     0.000000

                    Cartesian Multipole Moments
 -----------------------------------------------------------------
    Charge (ESU x 10^10)
                 0.0000
    Dipole Moment (Debye)
         X       0.0183      Y      -0.0067      Z       0.0025
       Tot       0.0197
    Quadrupole Moments (Debye-Ang)
        XX     -33.3780     XY       0.0272     YY     -33.5270
        XZ      -0.0056     YZ      -0.0007     ZZ     -33.5122

 Total job time:  212.66s(wall), 421.86s(cpu)
        *  Thank you very much for using Q-Chem.  Have a nice day.  *
