 Q-Chem 5.1, Q-Chem, Inc., Pleasanton, CA (2018)
 Q-Chem 5.1.2 for Intel X86 EM64T Linux

User input:
--------------------------------------------------------------
$molecule
0 1
--
0 1
Si    -2.355587420     0.000852678    -0.001125865
H    -2.728992107     0.287798069    -1.400983250
H    -2.856535997     1.078823011     0.875456972
H    -0.884338632    -0.075218668     0.107530826
H    -2.944965592    -1.288253407     0.413844090
--
0 1
Si     2.529278469    -0.000935650     0.001263695
H     1.971962036     0.252189355    -1.343312885
H     2.052050372     1.038757214     0.936078072
H     4.004919431     0.035151200    -0.063306560
H     2.089600963    -1.329414800     0.474930593
$end

$rem
BASIS = aug-cc-pVTZ
JOB_TYPE  =  BSSE
METHOD  =  MP2
SCF_CONVERGENCE  =  8
SCF_MAX_CYCLES  =  200
$end

--------------------------------------------------------------

             Standard Nuclear Orientation (Angstroms)
    I     Atom           X                Y                Z
 ----------------------------------------------------------------
    1      Si     -2.4426816240     0.0000223383    -0.0000363545
    2      H      -2.8168473086     0.2397019686    -1.4085544167
    3      H      -2.9435994492     1.1066330108     0.8401190701
    4      H      -0.9713549435    -0.0718616630     0.1104019176
    5      H      -3.0314071854    -1.2746311619     0.4582450649
    6      Si      2.4421851757    -0.0000310203     0.0000543044
    7      H       1.8841458051     0.2076401765    -1.3519903654
    8      H       1.9650288245     1.0702859638     0.8996815592
    9      H       3.9177826742     0.0343681715    -0.0664027878
   10      H       2.0032018601    -1.3120149187     0.5182486602
 ----------------------------------------------------------------

    7    -582.5214908892      3.48E-09 Convergence criterion met
 Total energy in the final basis set = -582.52149089
        MP2         total energy =                  -582.81438614 au

                    Orbital Energies (a.u.)
 --------------------------------------------------------------

 Alpha MOs
 -- Occupied --
-68.775 -68.773  -6.125  -6.123  -4.231  -4.231  -4.231  -4.229
 -4.229  -4.229  -0.734  -0.729  -0.494  -0.488  -0.488  -0.486
 -0.486  -0.480

          Ground-State Mulliken Net Atomic Charges

     Atom                 Charge (a.u.)
  ----------------------------------------
      1 Si                    1.671303
      2 H                    -0.412506
      3 H                    -0.420887
      4 H                    -0.370804
      5 H                    -0.425512
      6 Si                    1.599247
      7 H                    -0.364743
      8 H                    -0.368445
      9 H                    -0.536532
     10 H                    -0.371122
  ----------------------------------------
  Sum of atomic charges =    -0.000000

                    Cartesian Multipole Moments
 -----------------------------------------------------------------
    Charge (ESU x 10^10)
                -0.0000
    Dipole Moment (Debye)
         X      -0.0770      Y      -0.0008      Z       0.0006
       Tot       0.0770
    Quadrupole Moments (Debye-Ang)
        XX     -33.5159     XY      -0.0062     YY     -33.5147
        XZ       0.0105     YZ       0.0001     ZZ     -33.5135

 Total job time:  219.79s(wall), 450.73s(cpu)
        *  Thank you very much for using Q-Chem.  Have a nice day.  *
