 Q-Chem 5.1, Q-Chem, Inc., Pleasanton, CA (2018)
 Q-Chem 5.1.2 for Intel X86 EM64T Linux

User input:
--------------------------------------------------------------
$molecule
0 1
--
0 1
Si    -2.355587420     0.000852678    -0.001125865
H    -2.728992107     0.287798069    -1.400983250
H    -2.856535997     1.078823011     0.875456972
H    -0.884338632    -0.075218668     0.107530826
H    -2.944965592    -1.288253407     0.413844090
--
0 1
Si     4.026706391    -0.001477261     0.001986439
H     3.469389958     0.251647744    -1.342590140
H     3.549478294     1.038215603     0.936800816
H     5.502347353     0.034609588    -0.062583815
H     3.587028886    -1.329956411     0.475653337
$end

$rem
BASIS = aug-cc-pVTZ
JOB_TYPE  =  BSSE
METHOD  =  MP2
!SCF_CONVERGENCE  =  7
SCF_MAX_CYCLES  =  200
$end

--------------------------------------------------------------

             Standard Nuclear Orientation (Angstroms)
    I     Atom           X                Y                Z
 ----------------------------------------------------------------
    1      Si     -3.1913957214     0.0000203182    -0.0000324766
    2      H      -3.5655675793     0.2397056432    -1.4085479298
    3      H      -3.6923126321     1.1066259901     0.8401300798
    4      H      -1.7200684393    -0.0718609355     0.1103995686
    5      H      -3.7801166236    -1.2746366085     0.4582453977
    6      Si      3.1908992730    -0.0000290013     0.0000504283
    7      H       2.6328540264     0.2076472213    -1.3519910432
    8      H       2.7137441550     1.0702827593     0.8996845517
    9      H       4.6664964292     0.0343737657    -0.0664124147
   10      H       2.7519209403    -1.3120162721     0.5182404663
 ----------------------------------------------------------------

    2    -582.5217644599      7.25E-06 Convergence criterion met
 Total energy in the final basis set = -582.52176446
        MP2         total energy =                  -582.81352724 au

                    Orbital Energies (a.u.)
 --------------------------------------------------------------

 Alpha MOs
 -- Occupied --
-68.775 -68.774  -6.124  -6.124  -4.230  -4.230  -4.230  -4.230
 -4.230  -4.230  -0.732  -0.731  -0.487  -0.487  -0.487  -0.486
 -0.486  -0.486

          Ground-State Mulliken Net Atomic Charges

     Atom                 Charge (a.u.)
  ----------------------------------------
      1 Si                    1.651018
      2 H                    -0.417320
      3 H                    -0.417780
      4 H                    -0.391751
      5 H                    -0.418176
      6 Si                    1.613098
      7 H                    -0.395615
      8 H                    -0.396174
      9 H                    -0.431078
     10 H                    -0.396224
  ----------------------------------------
  Sum of atomic charges =    -0.000001

                    Cartesian Multipole Moments
 -----------------------------------------------------------------
    Charge (ESU x 10^10)
                -0.0000
    Dipole Moment (Debye)
         X      -0.0262      Y      -0.0003      Z       0.0004
       Tot       0.0263
    Quadrupole Moments (Debye-Ang)
        XX     -33.4812     XY      -0.0039     YY     -33.5281
        XZ       0.0064     YZ       0.0000     ZZ     -33.5280

 Total job time:  102.54s(wall), 189.53s(cpu)
        *  Thank you very much for using Q-Chem.  Have a nice day.  *
