 Q-Chem 5.1, Q-Chem, Inc., Pleasanton, CA (2018)
 Q-Chem 5.1.2 for Intel X86 EM64T Linux

User input:
--------------------------------------------------------------
$molecule
0 1
--
0 1
Si     2.173201226     0.002277085    -0.000827763
H     2.463893195     1.428917805     0.248702748
H     1.532427706    -0.146056866    -1.323881333
H     1.257386864    -0.502442133     1.043232525
H     3.430773868    -0.772002931     0.029153171
--
0 1
Si    -3.845808781    -0.004207112     0.001430079
H    -3.323041963     0.361583031    -1.331213661
H    -3.519292027    -1.416238139     0.287618641
H    -5.311542986     0.179231349     0.023166177
H    -3.224726636     0.861293155     1.025377104
$end

$rem
BASIS = aug-cc-pVTZ
JOB_TYPE  =  BSSE
METHOD  =  MP2
SCF_CONVERGENCE  =  8
SCF_MAX_CYCLES  =  200
$end

--------------------------------------------------------------

             Standard Nuclear Orientation (Angstroms)
    I     Atom           X                Y                Z
 ----------------------------------------------------------------
    1      Si      3.0096094471     0.0000611945    -0.0000577784
    2      H       3.3016925005     1.4390454082     0.1614444309
    3      H       2.3691519361    -0.2286552303    -1.3117617800
    4      H       2.0929016227    -0.4386095274     1.0726649640
    5      H       4.2663675607    -0.7721867470     0.0779775338
    6      Si     -3.0094044700    -0.0001717348     0.0000787896
    7      H      -2.4857856560     0.2824951648    -1.3523078689
    8      H      -2.6844541172    -1.3922751368     0.3726430004
    9      H      -4.4749552329     0.1857412471     0.0098875185
   10      H      -2.3877882925     0.9259923854     0.9691580449
 ----------------------------------------------------------------

    6    -582.5217424742      4.91E-09 Convergence criterion met
 Total energy in the final basis set = -582.52174247
        MP2         total energy =                  -582.81352293 au

                    Orbital Energies (a.u.)
 --------------------------------------------------------------

 Alpha MOs
 -- Occupied --
-68.775 -68.774  -6.124  -6.124  -4.230  -4.230  -4.230  -4.230
 -4.230  -4.230  -0.732  -0.731  -0.487  -0.487  -0.487  -0.487
 -0.486  -0.486

          Ground-State Mulliken Net Atomic Charges

     Atom                 Charge (a.u.)
  ----------------------------------------
      1 Si                    1.591347
      2 H                    -0.398193
      3 H                    -0.394337
      4 H                    -0.392379
      5 H                    -0.407683
      6 Si                    1.609511
      7 H                    -0.397350
      8 H                    -0.397031
      9 H                    -0.417036
     10 H                    -0.396849
  ----------------------------------------
  Sum of atomic charges =     0.000000

                    Cartesian Multipole Moments
 -----------------------------------------------------------------
    Charge (ESU x 10^10)
                 0.0000
    Dipole Moment (Debye)
         X       0.0105      Y      -0.0041      Z       0.0013
       Tot       0.0113
    Quadrupole Moments (Debye-Ang)
        XX     -33.3911     XY       0.0211     YY     -33.5309
        XZ      -0.0056     YZ      -0.0003     ZZ     -33.5318

 Total job time:  180.75s(wall), 354.50s(cpu)
        *  Thank you very much for using Q-Chem.  Have a nice day.  *
