 Q-Chem 5.1, Q-Chem, Inc., Pleasanton, CA (2018)
 Q-Chem 5.1.2 for Intel X86 EM64T Linux

User input:
--------------------------------------------------------------
$molecule
0 1
--
0 1
O     1.993924319     0.222020423    -0.365391964
H     2.143343877     1.158326366    -0.214403173
H     2.400388308    -0.198991600     0.395963117
--
0 1
Si    -1.108790987    -0.166596795     0.115740777
H    -2.554436181    -0.391847767     0.345117516
H    -0.770573610     1.183718583     0.610627208
H    -0.835842807    -0.271240984    -1.328115227
H    -0.355482973    -1.186069849     0.871619838
$end

$rem
BASIS = aug-cc-pVTZ
JOB_TYPE  =  BSSE
METHOD  =  MP2
SCF_CONVERGENCE  =  7
SCF_MAX_CYCLES  =  200
$end

--------------------------------------------------------------

             Standard Nuclear Orientation (Angstroms)
    I     Atom           X                Y                Z
 ----------------------------------------------------------------
    1      O       2.0172891449     0.0026373561    -0.1137735630
    2      H       2.2756440605     0.7445079679     0.4381986928
    3      H       2.2682255204    -0.7653875466     0.4051622148
    4      Si     -1.1443437541     0.0000002656     0.0020918099
    5      H      -2.6241649643    -0.0426964788     0.0414350384
    6      H      -0.6840338530     0.9309792272     1.0528287711
    7      H      -0.7187413516     0.4701360094    -1.3275721525
    8      H      -0.6344300134    -1.3586417462     0.2708506005
 ----------------------------------------------------------------

    8    -367.3213434832      2.72E-08 Convergence criterion met
 Total energy in the final basis set = -367.32134348
        MP2         total energy =                  -367.73826306 au

                    Orbital Energies (a.u.)
 --------------------------------------------------------------

 Alpha MOs
 -- Occupied --
-68.763 -20.575  -6.112  -4.218  -4.218  -4.218  -1.361  -0.723
 -0.720  -0.595  -0.524  -0.477  -0.476  -0.466

          Ground-State Mulliken Net Atomic Charges

     Atom                 Charge (a.u.)
  ----------------------------------------
      1 O                    -0.446769
      2 H                     0.221398
      3 H                     0.220596
      4 Si                    1.620046
      5 H                    -0.592647
      6 H                    -0.348913
      7 H                    -0.327577
      8 H                    -0.346133
  ----------------------------------------
  Sum of atomic charges =    -0.000000

                    Cartesian Multipole Moments
 -----------------------------------------------------------------
    Charge (ESU x 10^10)
                -0.0000
    Dipole Moment (Debye)
         X       1.3446      Y      -0.0357      Z       1.6294
       Tot       2.1129
    Quadrupole Moments (Debye-Ang)
        XX     -21.1770     XY      -0.0985     YY     -21.2185
        XZ       4.3601     YZ       0.0286     ZZ     -23.3473

 Total job time:  110.16s(wall), 239.14s(cpu)
        *  Thank you very much for using Q-Chem.  Have a nice day.  *
