 Q-Chem 5.1, Q-Chem, Inc., Pleasanton, CA (2018)
 Q-Chem 5.1.2 for Intel X86 EM64T Linux

User input:
--------------------------------------------------------------
$molecule
0 1
--
0 1
O     1.993924319     0.222020423    -0.365391964
H     2.143343877     1.158326366    -0.214403173
H     2.400388308    -0.198991600     0.395963117
--
0 1
Si    -0.810151900    -0.126851006     0.074680133
H    -2.255797093    -0.352101977     0.304056871
H    -0.471934522     1.223464372     0.569566563
H    -0.537203719    -0.231495195    -1.369175872
H    -0.056843885    -1.146324060     0.830559194
$end

$rem
BASIS = aug-cc-pVTZ
JOB_TYPE  =  BSSE
METHOD  =  MP2
SCF_CONVERGENCE  =  7
SCF_MAX_CYCLES  =  200
$end

--------------------------------------------------------------

             Standard Nuclear Orientation (Angstroms)
    I     Atom           X                Y                Z
 ----------------------------------------------------------------
    1      O       1.8216017049     0.0026374888    -0.1143915291
    2      H       2.0811676843     0.7445266072     0.4369873574
    3      H       2.0737362230    -0.7653696868     0.4039894315
    4      Si     -1.0357660137    -0.0000016551     0.0024884177
    5      H      -2.5154932219    -0.0427579450     0.0451616077
    6      H      -0.5731310787     0.9310112571     1.0521736408
    7      H      -0.6131754088     0.4701320790    -1.3281365226
    8      H      -0.5251936446    -1.3586190497     0.2701188705
 ----------------------------------------------------------------

    8    -367.3188112658      5.23E-08 Convergence criterion met
 Total energy in the final basis set = -367.31881127
        MP2         total energy =                  -367.73720795 au

                    Orbital Energies (a.u.)
 --------------------------------------------------------------

 Alpha MOs
 -- Occupied --
-68.761 -20.578  -6.109  -4.216  -4.215  -4.215  -1.366  -0.727
 -0.719  -0.601  -0.532  -0.476  -0.472  -0.458

          Ground-State Mulliken Net Atomic Charges

     Atom                 Charge (a.u.)
  ----------------------------------------
      1 O                    -0.437486
      2 H                     0.219711
      3 H                     0.219824
      4 Si                    1.630528
      5 H                    -0.636386
      6 H                    -0.345981
      7 H                    -0.307596
      8 H                    -0.342613
  ----------------------------------------
  Sum of atomic charges =     0.000000

                    Cartesian Multipole Moments
 -----------------------------------------------------------------
    Charge (ESU x 10^10)
                 0.0000
    Dipole Moment (Debye)
         X       1.5221      Y      -0.0318      Z       1.5991
       Tot       2.2079
    Quadrupole Moments (Debye-Ang)
        XX     -21.5542     XY      -0.0910     YY     -21.3053
        XZ       4.0011     YZ       0.0315     ZZ     -23.4078

 Total job time:  115.85s(wall), 245.73s(cpu)
        *  Thank you very much for using Q-Chem.  Have a nice day.  *
