 Q-Chem 5.1, Q-Chem, Inc., Pleasanton, CA (2018)
 Q-Chem 5.1.2 for Intel X86 EM64T Linux

User input:
--------------------------------------------------------------
$molecule
0 1
--
0 1
O     1.993924319     0.222020423    -0.365391964
H     2.143343877     1.158326366    -0.214403173
H     2.400388308    -0.198991600     0.395963117
--
0 1
Si    -0.959671842    -0.146750572     0.095238008
H    -2.405317035    -0.372001543     0.324614747
H    -0.621454464     1.203564807     0.590124439
H    -0.686723662    -0.251394761    -1.348617996
H    -0.206363827    -1.166223626     0.851117069
$end

$rem
BASIS = aug-cc-pVTZ
JOB_TYPE  =  BSSE
METHOD  =  MP2
SCF_CONVERGENCE  =  7
SCF_MAX_CYCLES  =  200
$end

--------------------------------------------------------------

             Standard Nuclear Orientation (Angstroms)
    I     Atom           X                Y                Z
 ----------------------------------------------------------------
    1      O       1.9195833487     0.0026373900    -0.1140664128
    2      H       2.1785078159     0.7445167459     0.4376271433
    3      H       2.1710833564    -0.7653791370     0.4046088397
    4      Si     -1.0901274287    -0.0000006258     0.0022795252
    5      H      -2.5699053654    -0.0427255386     0.0431885990
    6      H      -0.6287240560     0.9309943767     1.0525225590
    7      H      -0.6659410192     0.4701341928    -1.3278371682
    8      H      -0.5799035199    -1.3586309981     0.2705079775
 ----------------------------------------------------------------

    8    -367.3204402399      3.77E-08 Convergence criterion met
 Total energy in the final basis set = -367.32044024
        MP2         total energy =                  -367.73800638 au

                    Orbital Energies (a.u.)
 --------------------------------------------------------------

 Alpha MOs
 -- Occupied --
-68.762 -20.576  -6.111  -4.217  -4.217  -4.217  -1.363  -0.725
 -0.719  -0.598  -0.527  -0.477  -0.474  -0.462

          Ground-State Mulliken Net Atomic Charges

     Atom                 Charge (a.u.)
  ----------------------------------------
      1 O                    -0.444985
      2 H                     0.220851
      3 H                     0.220338
      4 Si                    1.632481
      5 H                    -0.620862
      6 H                    -0.346453
      7 H                    -0.317803
      8 H                    -0.343568
  ----------------------------------------
  Sum of atomic charges =    -0.000000

                    Cartesian Multipole Moments
 -----------------------------------------------------------------
    Charge (ESU x 10^10)
                -0.0000
    Dipole Moment (Debye)
         X       1.4220      Y      -0.0340      Z       1.6150
       Tot       2.1520
    Quadrupole Moments (Debye-Ang)
        XX     -21.3633     XY      -0.0948     YY     -21.2563
        XZ       4.1811     YZ       0.0297     ZZ     -23.3735

 Total job time:  110.87s(wall), 240.79s(cpu)
        *  Thank you very much for using Q-Chem.  Have a nice day.  *
