 Q-Chem 5.1, Q-Chem, Inc., Pleasanton, CA (2018)
 Q-Chem 5.1.2 for Intel X86 EM64T Linux

User input:
--------------------------------------------------------------
$molecule
0 1
--
0 1
Si    -2.355587420     0.000852678    -0.001125865
H    -2.728992107     0.287798069    -1.400983250
H    -2.856535997     1.078823011     0.875456972
H    -0.884338632    -0.075218668     0.107530826
H    -2.944965592    -1.288253407     0.413844090
--
0 1
Si     1.998159816    -0.000743547     0.001007346
H     1.440843382     0.252381458    -1.343569233
H     1.520931718     1.038949317     0.935821724
H     3.473800777     0.035343302    -0.063562908
H     1.558482310    -1.329222697     0.474674244
$end

$rem
BASIS = aug-cc-pVTZ
JOB_TYPE  =  BSSE
METHOD  =  MP2
SCF_CONVERGENCE  =  8
SCF_MAX_CYCLES  =  200
$end

--------------------------------------------------------------

             Standard Nuclear Orientation (Angstroms)
    I     Atom           X                Y                Z
 ----------------------------------------------------------------
    1      Si     -2.1771222490     0.0000233886    -0.0000383712
    2      H      -2.5512842722     0.2396972090    -1.4085583946
    3      H      -2.6780406274     1.1066384718     0.8401109142
    4      H      -0.7057959249    -0.0718620390     0.1104037204
    5      H      -2.7658505636    -1.2746272939     0.4582473483
    6      Si      2.1766258008    -0.0000320698     0.0000563197
    7      H       1.6185899147     0.2076338095    -1.3519906044
    8      H       1.6994687068     1.0702895598     0.8996776551
    9      H       3.6522235013     0.0343648979    -0.0663974171
   10      H       1.7376395410    -1.3120130782     0.5182554985
 ----------------------------------------------------------------

    7    -582.5198758541      6.96E-09 Convergence criterion met
 Total energy in the final basis set = -582.51987585
        MP2         total energy =                  -582.81430923 au

                    Orbital Energies (a.u.)
 --------------------------------------------------------------

 Alpha MOs
 -- Occupied --
-68.776 -68.773  -6.125  -6.122  -4.231  -4.231  -4.231  -4.228
 -4.228  -4.228  -0.737  -0.727  -0.502  -0.489  -0.488  -0.485
 -0.485  -0.472

          Ground-State Mulliken Net Atomic Charges

     Atom                 Charge (a.u.)
  ----------------------------------------
      1 Si                    1.694462
      2 H                    -0.411843
      3 H                    -0.424419
      4 H                    -0.393594
      5 H                    -0.430712
      6 Si                    1.693174
      7 H                    -0.351822
      8 H                    -0.353534
      9 H                    -0.664126
     10 H                    -0.357586
  ----------------------------------------
  Sum of atomic charges =     0.000000

                    Cartesian Multipole Moments
 -----------------------------------------------------------------
    Charge (ESU x 10^10)
                 0.0000
    Dipole Moment (Debye)
         X      -0.1299      Y      -0.0021      Z       0.0021
       Tot       0.1299
    Quadrupole Moments (Debye-Ang)
        XX     -33.6600     XY      -0.0100     YY     -33.4912
        XZ       0.0176     YZ       0.0003     ZZ     -33.4895

 Total job time:  249.39s(wall), 494.77s(cpu)
        *  Thank you very much for using Q-Chem.  Have a nice day.  *
