 Q-Chem 5.1, Q-Chem, Inc., Pleasanton, CA (2018)
 Q-Chem 5.1.2 for Intel X86 EM64T Linux

User input:
--------------------------------------------------------------
$molecule
0 1
--
0 1
Si     2.173201226     0.002277085    -0.000827763
H     2.463893195     1.428917805     0.248702748
H     1.532427706    -0.146056866    -1.323881333
H     1.257386864    -0.502442133     1.043232525
H     3.430773868    -0.772002931     0.029153171
--
0 1
Si    -1.997869447    -0.002248886     0.000749268
H    -1.475102628     0.363541257    -1.331894472
H    -1.671352693    -1.414279913     0.286937830
H    -3.463603652     0.181189576     0.022485366
H    -1.376787301     0.863251381     1.024696293
$end

$rem
BASIS = aug-cc-pVTZ
JOB_TYPE  =  BSSE
METHOD  =  MP2
SCF_CONVERGENCE  =  8
SCF_MAX_CYCLES  =  200
$end

--------------------------------------------------------------

             Standard Nuclear Orientation (Angstroms)
    I     Atom           X                Y                Z
 ----------------------------------------------------------------
    1      Si      2.0856391973     0.0000722929    -0.0000696900
    2      H       2.3777028521     1.4390615539     0.1614226296
    3      H       1.4451689259    -0.2286593863    -1.3117648010
    4      H       1.1689511092    -0.4386073643     1.0726662641
    5      H       3.3424097504    -0.7721566276     0.0779535152
    6      Si     -2.0854342185    -0.0001828301     0.0000906991
    7      H      -1.5618362663     0.2824859393    -1.3523036460
    8      H      -1.7604585842    -1.3922797732     0.3726569928
    9      H      -3.5509876236     0.1857084125     0.0099166708
   10      H      -1.4638198670     0.9259947663     0.9691582469
 ----------------------------------------------------------------

    7    -582.5205545070      3.92E-09 Convergence criterion met
 Total energy in the final basis set = -582.52055451
        MP2         total energy =                  -582.81465950 au

                    Orbital Energies (a.u.)
 --------------------------------------------------------------

 Alpha MOs
 -- Occupied --
-68.775 -68.774  -6.124  -6.124  -4.230  -4.230  -4.230  -4.229
 -4.229  -4.229  -0.737  -0.727  -0.496  -0.494  -0.489  -0.485
 -0.480  -0.478

          Ground-State Mulliken Net Atomic Charges

     Atom                 Charge (a.u.)
  ----------------------------------------
      1 Si                    1.535396
      2 H                    -0.390339
      3 H                    -0.365456
      4 H                    -0.346337
      5 H                    -0.425195
      6 Si                    1.492571
      7 H                    -0.337166
      8 H                    -0.351259
      9 H                    -0.484602
     10 H                    -0.327613
  ----------------------------------------
  Sum of atomic charges =     0.000000

                    Cartesian Multipole Moments
 -----------------------------------------------------------------
    Charge (ESU x 10^10)
                -0.0000
    Dipole Moment (Debye)
         X       0.0350      Y      -0.0132      Z       0.0060
       Tot       0.0379
    Quadrupole Moments (Debye-Ang)
        XX     -33.4838     XY       0.0506     YY     -33.5089
        XZ      -0.0103     YZ      -0.0021     ZZ     -33.4349

 Total job time:  251.48s(wall), 500.72s(cpu)
        *  Thank you very much for using Q-Chem.  Have a nice day.  *
