 Q-Chem 5.1, Q-Chem, Inc., Pleasanton, CA (2018)
 Q-Chem 5.1.2 for Intel X86 EM64T Linux

User input:
--------------------------------------------------------------
$molecule
0 1
--
0 1
Si    -2.355587420     0.000852678    -0.001125865
H    -2.728992107     0.287798069    -1.400983250
H    -2.856535997     1.078823011     0.875456972
H    -0.884338632    -0.075218668     0.107530826
H    -2.944965592    -1.288253407     0.413844090
--
0 1
Si     1.632260042    -0.000611203     0.000830742
H     1.074943609     0.252513801    -1.343745837
H     1.155031945     1.039081661     0.935645120
H     3.107901004     0.035475646    -0.063739512
H     1.192582537    -1.329090353     0.474497640
$end

$rem
BASIS = aug-cc-pVTZ
JOB_TYPE  =  BSSE
METHOD  =  MP2
SCF_CONVERGENCE  =  8
SCF_MAX_CYCLES  =  200
$end

--------------------------------------------------------------

             Standard Nuclear Orientation (Angstroms)
    I     Atom           X                Y                Z
 ----------------------------------------------------------------
    1      Si     -1.9941723288     0.0000242751    -0.0000400732
    2      H      -2.3683310219     0.2396926714    -1.4085619042
    3      H      -2.4950912152     1.1066434502     0.8401035195
    4      H      -0.5228463286    -0.0718624331     0.1104055001
    5      H      -2.5829031424    -1.2746238021     0.4582496820
    6      Si      1.9936758803    -0.0000329556     0.0000580207
    7      H       1.4356431652     0.2076279514    -1.3519909753
    8      H       1.5165181076     1.0702929856     0.8996738660
    9      H       3.4692737662     0.0343619898    -0.0663926678
   10      H       1.5546869485    -1.3120112863     0.5182617146
 ----------------------------------------------------------------

    8    -582.5159069231      2.66E-09 Convergence criterion met
 Total energy in the final basis set = -582.51590692
        MP2         total energy =                  -582.81244977 au

                    Orbital Energies (a.u.)
 --------------------------------------------------------------

 Alpha MOs
 -- Occupied --
-68.776 -68.772  -6.126  -6.121  -4.232  -4.232  -4.232  -4.227
 -4.227  -4.227  -0.743  -0.723  -0.513  -0.490  -0.490  -0.484
 -0.484  -0.461

          Ground-State Mulliken Net Atomic Charges

     Atom                 Charge (a.u.)
  ----------------------------------------
      1 Si                    1.698369
      2 H                    -0.413106
      3 H                    -0.427691
      4 H                    -0.417141
      5 H                    -0.434321
      6 Si                    1.657807
      7 H                    -0.342933
      8 H                    -0.342675
      9 H                    -0.632445
     10 H                    -0.345865
  ----------------------------------------
  Sum of atomic charges =     0.000000

                    Cartesian Multipole Moments
 -----------------------------------------------------------------
    Charge (ESU x 10^10)
                 0.0000
    Dipole Moment (Debye)
         X      -0.2068      Y      -0.0046      Z       0.0055
       Tot       0.2069
    Quadrupole Moments (Debye-Ang)
        XX     -33.9005     XY      -0.0155     YY     -33.4601
        XZ       0.0285     YZ       0.0005     ZZ     -33.4574

 Total job time:  254.18s(wall), 522.29s(cpu)
        *  Thank you very much for using Q-Chem.  Have a nice day.  *
