 Q-Chem 5.1, Q-Chem, Inc., Pleasanton, CA (2018)
 Q-Chem 5.1.2 for Intel X86 EM64T Linux

User input:
--------------------------------------------------------------
$molecule
0 1
--
0 1
O     1.993924319     0.222020423    -0.365391964
H     2.143343877     1.158326366    -0.214403173
H     2.400388308    -0.198991600     0.395963117
--
0 1
Si    -1.406053728    -0.206159407     0.156612184
H    -2.851698921    -0.431410379     0.385988922
H    -1.067836351     1.144155971     0.651498615
H    -1.133105548    -0.310803596    -1.287243821
H    -0.652745714    -1.225632461     0.912491245
$end

$rem
BASIS = aug-cc-pVTZ
JOB_TYPE  =  BSSE
METHOD  =  MP2
SCF_CONVERGENCE  =  7
SCF_MAX_CYCLES  =  200
$end

--------------------------------------------------------------

             Standard Nuclear Orientation (Angstroms)
    I     Atom           X                Y                Z
 ----------------------------------------------------------------
    1      O       2.2120300384     0.0026374202    -0.1132667890
    2      H       2.4694180358     0.7444930138     0.4391771767
    3      H       2.4620088487    -0.7654018674     0.4061096683
    4      Si     -1.2524233206     0.0000017279     0.0017679618
    5      H      -2.7323141969    -0.0426464656     0.0384536313
    6      H      -0.7939699275     0.9309531443     1.0533406603
    7      H      -0.8244186552     0.4701389404    -1.3271241656
    8      H      -0.7430379229    -1.3586603172     0.2714258758
 ----------------------------------------------------------------

    7    -367.3219802175      7.00E-08 Convergence criterion met
 Total energy in the final basis set = -367.32198022
        MP2         total energy =                  -367.73798911 au

                    Orbital Energies (a.u.)
 --------------------------------------------------------------

 Alpha MOs
 -- Occupied --
-68.765 -20.573  -6.114  -4.220  -4.220  -4.220  -1.358  -0.721
 -0.720  -0.592  -0.519  -0.479  -0.478  -0.471

          Ground-State Mulliken Net Atomic Charges

     Atom                 Charge (a.u.)
  ----------------------------------------
      1 O                    -0.442746
      2 H                     0.221465
      3 H                     0.220723
      4 Si                    1.571540
      5 H                    -0.521391
      6 H                    -0.355933
      7 H                    -0.341639
      8 H                    -0.352020
  ----------------------------------------
  Sum of atomic charges =     0.000000

                    Cartesian Multipole Moments
 -----------------------------------------------------------------
    Charge (ESU x 10^10)
                 0.0000
    Dipole Moment (Debye)
         X       1.2358      Y      -0.0381      Z       1.6545
       Tot       2.0654
    Quadrupole Moments (Debye-Ang)
        XX     -20.8223     XY      -0.1058     YY     -21.1637
        XZ       4.7161     YZ       0.0278     ZZ     -23.3094

 Total job time:  105.65s(wall), 220.94s(cpu)
        *  Thank you very much for using Q-Chem.  Have a nice day.  *
