 Q-Chem 5.1, Q-Chem, Inc., Pleasanton, CA (2018)
 Q-Chem 5.1.2 for Intel X86 EM64T Linux

User input:
--------------------------------------------------------------
$molecule
0 1
--
0 1
O     1.993924319     0.222020423    -0.365391964
H     2.143343877     1.158326366    -0.214403173
H     2.400388308    -0.198991600     0.395963117
--
0 1
Si    -0.509592368    -0.086849625     0.033355442
H    -1.955237561    -0.312100597     0.262732180
H    -0.171374990     1.263465753     0.528241872
H    -0.236644187    -0.191493814    -1.410500563
H     0.243715647    -1.106322679     0.789234503
$end

$rem
BASIS = aug-cc-pVTZ
JOB_TYPE  =  BSSE
METHOD  =  MP2
SCF_CONVERGENCE  =  7
SCF_MAX_CYCLES  =  200
$end

--------------------------------------------------------------

             Standard Nuclear Orientation (Angstroms)
    I     Atom           X                Y                Z
 ----------------------------------------------------------------
    1      O       1.6245910647     0.0026379763    -0.1151635576
    2      H       1.8857189118     0.7445505367     0.4354457761
    3      H       1.8782690643    -0.7653467431     0.4024971425
    4      Si     -0.9264929345    -0.0000042671     0.0029865577
    5      H      -2.4060878050    -0.0428355426     0.0499569041
    6      H      -0.4608597939     0.9310516597     1.0513070397
    7      H      -0.5077918294     0.4701266064    -1.3288683988
    8      H      -0.4150759819    -1.3585905879     0.2691581897
 ----------------------------------------------------------------

    8    -367.3115230930      9.23E-08 Convergence criterion met
 Total energy in the final basis set = -367.31152309
        MP2         total energy =                  -367.73238848 au

                    Orbital Energies (a.u.)
 --------------------------------------------------------------

 Alpha MOs
 -- Occupied --
-68.758 -20.584  -6.107  -4.213  -4.213  -4.212  -1.376  -0.736
 -0.721  -0.611  -0.545  -0.474  -0.467  -0.445

          Ground-State Mulliken Net Atomic Charges

     Atom                 Charge (a.u.)
  ----------------------------------------
      1 O                    -0.400170
      2 H                     0.216697
      3 H                     0.219442
      4 Si                    1.596796
      5 H                    -0.633924
      6 H                    -0.354664
      7 H                    -0.293808
      8 H                    -0.350370
  ----------------------------------------
  Sum of atomic charges =    -0.000000

                    Cartesian Multipole Moments
 -----------------------------------------------------------------
    Charge (ESU x 10^10)
                -0.0000
    Dipole Moment (Debye)
         X       1.8245      Y      -0.0249      Z       1.5632
       Tot       2.4027
    Quadrupole Moments (Debye-Ang)
        XX     -21.9307     XY      -0.0815     YY     -21.4628
        XZ       3.6364     YZ       0.0395     ZZ     -23.5233

 Total job time:  120.71s(wall), 254.09s(cpu)
        *  Thank you very much for using Q-Chem.  Have a nice day.  *
