 Q-Chem 5.1, Q-Chem, Inc., Pleasanton, CA (2018)
 Q-Chem 5.1.2 for Intel X86 EM64T Linux

User input:
--------------------------------------------------------------
$molecule
0 1
--
0 1
Si    -2.355587420     0.000852678    -0.001125865
H    -2.728992107     0.287798069    -1.400983250
H    -2.856535997     1.078823011     0.875456972
H    -0.884338632    -0.075218668     0.107530826
H    -2.944965592    -1.288253407     0.413844090
--
0 1
Si     2.701154966    -0.000997817     0.001346652
H     2.143838532     0.252127188    -1.343229927
H     2.223926868     1.038695048     0.936161029
H     4.176795927     0.035089033    -0.063223602
H     2.261477460    -1.329476966     0.475013550
$end

$rem
BASIS = aug-cc-pVTZ
JOB_TYPE  =  BSSE
METHOD  =  MP2
SCF_CONVERGENCE  =  8
SCF_MAX_CYCLES  =  200
$end

--------------------------------------------------------------

             Standard Nuclear Orientation (Angstroms)
    I     Atom           X                Y                Z
 ----------------------------------------------------------------
    1      Si     -2.5286198881     0.0000220455    -0.0000357927
    2      H      -2.9027865377     0.2396998804    -1.4085539040
    3      H      -3.0295375687     1.1066335392     0.8401186365
    4      H      -1.0572931136    -0.0718613175     0.1104016428
    5      H      -3.1173447227    -1.2746311156     0.4582475035
    6      Si      2.5281234399    -0.0000307278     0.0000537428
    7      H       1.9700831498     0.2076386770    -1.3519908221
    8      H       2.0509672821     1.0702871570     0.8996800302
    9      H       4.0037208840     0.0343688944    -0.0664043135
   10      H       2.0891409015    -1.3120141636     0.5182499257
 ----------------------------------------------------------------

    7    -582.5216272266      3.82E-09 Convergence criterion met
 Total energy in the final basis set = -582.52162723
        MP2         total energy =                  -582.81423686 au

                    Orbital Energies (a.u.)
 --------------------------------------------------------------

 Alpha MOs
 -- Occupied --
-68.775 -68.773  -6.125  -6.123  -4.231  -4.231  -4.231  -4.229
 -4.229  -4.229  -0.733  -0.730  -0.492  -0.488  -0.488  -0.486
 -0.486  -0.482

          Ground-State Mulliken Net Atomic Charges

     Atom                 Charge (a.u.)
  ----------------------------------------
      1 Si                    1.668038
      2 H                    -0.412731
      3 H                    -0.419965
      4 H                    -0.375849
      5 H                    -0.424140
      6 Si                    1.539454
      7 H                    -0.362260
      8 H                    -0.366213
      9 H                    -0.477794
     10 H                    -0.368539
  ----------------------------------------
  Sum of atomic charges =    -0.000000

                    Cartesian Multipole Moments
 -----------------------------------------------------------------
    Charge (ESU x 10^10)
                -0.0000
    Dipole Moment (Debye)
         X      -0.0665      Y      -0.0006      Z       0.0005
       Tot       0.0665
    Quadrupole Moments (Debye-Ang)
        XX     -33.4982     XY      -0.0056     YY     -33.5186
        XZ       0.0094     YZ       0.0001     ZZ     -33.5175

 Total job time:  213.40s(wall), 436.05s(cpu)
        *  Thank you very much for using Q-Chem.  Have a nice day.  *
