 Q-Chem 5.1, Q-Chem, Inc., Pleasanton, CA (2018)
 Q-Chem 5.1.2 for Intel X86 EM64T Linux

User input:
--------------------------------------------------------------
$molecule
0 1
--
0 1
Si    -2.355587420     0.000852678    -0.001125865
H    -2.728992107     0.287798069    -1.400983250
H    -2.856535997     1.078823011     0.875456972
H    -0.884338632    -0.075218668     0.107530826
H    -2.944965592    -1.288253407     0.413844090
--
0 1
Si     3.039561188    -0.001120216     0.001509986
H     2.482244754     0.252004788    -1.343066593
H     2.562333090     1.038572648     0.936324364
H     4.515202149     0.034966633    -0.063060268
H     2.599883682    -1.329599366     0.475176884
$end

$rem
BASIS = aug-cc-pVTZ
JOB_TYPE  =  BSSE
METHOD  =  MP2
SCF_CONVERGENCE  =  7
SCF_MAX_CYCLES  =  200
$end

--------------------------------------------------------------

             Standard Nuclear Orientation (Angstroms)
    I     Atom           X                Y                Z
 ----------------------------------------------------------------
    1      Si     -2.6978230299     0.0000215238    -0.0000347912
    2      H      -3.0719913405     0.2396991333    -1.4085524997
    3      H      -3.1987404628     1.1066327214     0.8401201757
    4      H      -1.2264960936    -0.0718609642     0.1104010583
    5      H      -3.2865466126    -1.2746319864     0.4582491423
    6      Si      2.6973265817    -0.0000302061     0.0000527418
    7      H       2.1392847106     0.2076388630    -1.3519912219
    8      H       2.2201707574     1.0702873959     0.8996795424
    9      H       4.1729239337     0.0343702923    -0.0664069053
   10      H       2.2583453821    -1.3120139029     0.5182494007
 ----------------------------------------------------------------

    6    -582.5217419216      8.70E-08 Convergence criterion met
 Total energy in the final basis set = -582.52174192
        MP2         total energy =                  -582.81396520 au

                    Orbital Energies (a.u.)
 --------------------------------------------------------------

 Alpha MOs
 -- Occupied --
-68.775 -68.774  -6.125  -6.123  -4.231  -4.231  -4.231  -4.229
 -4.229  -4.229  -0.733  -0.730  -0.490  -0.487  -0.487  -0.486
 -0.486  -0.484

          Ground-State Mulliken Net Atomic Charges

     Atom                 Charge (a.u.)
  ----------------------------------------
      1 Si                    1.663774
      2 H                    -0.413367
      3 H                    -0.418625
      4 H                    -0.386838
      5 H                    -0.421962
      6 Si                    1.498986
      7 H                    -0.362872
      8 H                    -0.366667
      9 H                    -0.423966
     10 H                    -0.368463
  ----------------------------------------
  Sum of atomic charges =    -0.000000

                    Cartesian Multipole Moments
 -----------------------------------------------------------------
    Charge (ESU x 10^10)
                -0.0000
    Dipole Moment (Debye)
         X      -0.0508      Y      -0.0005      Z       0.0004
       Tot       0.0509
    Quadrupole Moments (Debye-Ang)
        XX     -33.4817     XY      -0.0049     YY     -33.5234
        XZ       0.0080     YZ       0.0000     ZZ     -33.5226

 Total job time:  165.19s(wall), 337.95s(cpu)
        *  Thank you very much for using Q-Chem.  Have a nice day.  *
