 Q-Chem 5.1, Q-Chem, Inc., Pleasanton, CA (2018)
 Q-Chem 5.1.2 for Intel X86 EM64T Linux

User input:
--------------------------------------------------------------
$molecule
0 1
--
0 1
Si     2.173201226     0.002277085    -0.000827763
H     2.463893195     1.428917805     0.248702748
H     1.532427706    -0.146056866    -1.323881333
H     1.257386864    -0.502442133     1.043232525
H     3.430773868    -0.772002931     0.029153171
--
0 1
Si    -1.820501766    -0.002060933     0.000683923
H    -1.297734947     0.363729211    -1.331959817
H    -1.493985012    -1.414091960     0.286872485
H    -3.286235971     0.181377529     0.022420021
H    -1.199419620     0.863439334     1.024630948
$end

$rem
BASIS = aug-cc-pVTZ
JOB_TYPE  =  BSSE
METHOD  =  MP2
SCF_CONVERGENCE  =  8
SCF_MAX_CYCLES  =  200
$end

--------------------------------------------------------------

             Standard Nuclear Orientation (Angstroms)
    I     Atom           X                Y                Z
 ----------------------------------------------------------------
    1      Si      1.9969553008     0.0000738985    -0.0000714130
    2      H       2.2890158070     1.4390639604     0.1614194634
    3      H       1.3564828646    -0.2286600947    -1.3117650636
    4      H       1.0802704977    -0.4386073531     1.0726666962
    5      H       3.2537278849    -0.7721519345     0.0779496371
    6      Si     -1.9967503216    -0.0001844352     0.0000924218
    7      H      -1.4731558564     0.2824848153    -1.3523031731
    8      H      -1.6717705456    -1.3922803747     0.3726588525
    9      H      -3.4623041563     0.1857032656     0.0099213225
   10      H      -1.3751362038     0.9259952301     0.9691581421
 ----------------------------------------------------------------

    7    -582.5196472068      5.16E-09 Convergence criterion met
 Total energy in the final basis set = -582.51964721
        MP2         total energy =                  -582.81450887 au

                    Orbital Energies (a.u.)
 --------------------------------------------------------------

 Alpha MOs
 -- Occupied --
-68.775 -68.774  -6.124  -6.123  -4.230  -4.230  -4.230  -4.229
 -4.229  -4.229  -0.739  -0.726  -0.499  -0.496  -0.489  -0.485
 -0.478  -0.475

          Ground-State Mulliken Net Atomic Charges

     Atom                 Charge (a.u.)
  ----------------------------------------
      1 Si                    1.543670
      2 H                    -0.388962
      3 H                    -0.362041
      4 H                    -0.342174
      5 H                    -0.440162
      6 Si                    1.542414
      7 H                    -0.334552
      8 H                    -0.348165
      9 H                    -0.541975
     10 H                    -0.328053
  ----------------------------------------
  Sum of atomic charges =     0.000000

                    Cartesian Multipole Moments
 -----------------------------------------------------------------
    Charge (ESU x 10^10)
                 0.0000
    Dipole Moment (Debye)
         X       0.0405      Y      -0.0156      Z       0.0073
       Tot       0.0440
    Quadrupole Moments (Debye-Ang)
        XX     -33.5575     XY       0.0634     YY     -33.5014
        XZ      -0.0131     YZ      -0.0030     ZZ     -33.3962

 Total job time:  255.69s(wall), 512.30s(cpu)
        *  Thank you very much for using Q-Chem.  Have a nice day.  *
