 Q-Chem 5.1, Q-Chem, Inc., Pleasanton, CA (2018)
 Q-Chem 5.1.2 for Intel X86 EM64T Linux

User input:
--------------------------------------------------------------
$molecule
0 1
--
0 1
O     1.993924319     0.222020423    -0.365391964
H     2.143343877     1.158326366    -0.214403173
H     2.400388308    -0.198991600     0.395963117
--
0 1
Si    -1.710476829    -0.246674989     0.198468087
H    -3.156122022    -0.471925961     0.427844825
H    -1.372259451     1.103640389     0.693354517
H    -1.437528649    -0.351319178    -1.245387918
H    -0.957168814    -1.266148043     0.954347148
$end

$rem
BASIS = aug-cc-pVTZ
JOB_TYPE  =  BSSE
METHOD  =  MP2
SCF_CONVERGENCE  =  7
SCF_MAX_CYCLES  =  200
$end

--------------------------------------------------------------

             Standard Nuclear Orientation (Angstroms)
    I     Atom           X                Y                Z
 ----------------------------------------------------------------
    1      O       2.4114282393     0.0026375995    -0.1128324114
    2      H       2.6680064279     0.7444804299     0.4400052558
    3      H       2.6606043362    -0.7654139125     0.4069115687
    4      Si     -1.3631080955     0.0000029006     0.0014913718
    5      H      -2.8430536505    -0.0426038609     0.0359519345
    6      H      -0.9062097126     0.9309309120     1.0537613460
    7      H      -0.9330929911     0.4701412390    -1.3267511630
    8      H      -0.8541669873    -1.3586762121     0.2719011445
 ----------------------------------------------------------------

    7    -367.3219616325      4.77E-08 Convergence criterion met
 Total energy in the final basis set = -367.32196163
        MP2         total energy =                  -367.73738819 au

                    Orbital Energies (a.u.)
 --------------------------------------------------------------

 Alpha MOs
 -- Occupied --
-68.766 -20.572  -6.115  -4.221  -4.221  -4.221  -1.357  -0.723
 -0.719  -0.590  -0.516  -0.480  -0.480  -0.474

          Ground-State Mulliken Net Atomic Charges

     Atom                 Charge (a.u.)
  ----------------------------------------
      1 O                    -0.439897
      2 H                     0.221685
      3 H                     0.221459
      4 Si                    1.536529
      5 H                    -0.466969
      6 H                    -0.364356
      7 H                    -0.350238
      8 H                    -0.358212
  ----------------------------------------
  Sum of atomic charges =     0.000000

                    Cartesian Multipole Moments
 -----------------------------------------------------------------
    Charge (ESU x 10^10)
                 0.0000
    Dipole Moment (Debye)
         X       1.1634      Y      -0.0396      Z       1.6754
       Tot       2.0401
    Quadrupole Moments (Debye-Ang)
        XX     -20.4786     XY      -0.1137     YY     -21.1254
        XZ       5.0800     YZ       0.0280     ZZ     -23.2826

 Total job time:  99.74s(wall), 207.19s(cpu)
        *  Thank you very much for using Q-Chem.  Have a nice day.  *
