 Q-Chem 5.1, Q-Chem, Inc., Pleasanton, CA (2018)
 Q-Chem 5.1.2 for Intel X86 EM64T Linux

User input:
--------------------------------------------------------------
$molecule
0 1
--
0 1
Si     2.173201226     0.002277085    -0.000827763
H     2.463893195     1.428917805     0.248702748
H     1.532427706    -0.146056866    -1.323881333
H     1.257386864    -0.502442133     1.043232525
H     3.430773868    -0.772002931     0.029153171
--
0 1
Si    -2.172678691    -0.002434128     0.000813670
H    -1.649911872     0.363356015    -1.331830070
H    -1.846161937    -1.414465155     0.287002233
H    -3.638412896     0.181004334     0.022549769
H    -1.551596545     0.863066139     1.024760696
$end

$rem
BASIS = aug-cc-pVTZ
JOB_TYPE  =  BSSE
METHOD  =  MP2
SCF_CONVERGENCE  =  8
SCF_MAX_CYCLES  =  200
$end

--------------------------------------------------------------

             Standard Nuclear Orientation (Angstroms)
    I     Atom           X                Y                Z
 ----------------------------------------------------------------
    1      Si      2.1730438745     0.0000708388    -0.0000681293
    2      H       2.4651103063     1.4390593738     0.1614256362
    3      H       1.5325754940    -0.2286586388    -1.3117645476
    4      H       1.2563529050    -0.4386075458     1.0726658829
    5      H       3.4298126387    -0.7721608126     0.0779568634
    6      Si     -2.1728388959    -0.0001813765     0.0000891386
    7      H      -1.6492378879     0.2824871371    -1.3523040769
    8      H      -1.8478669073    -1.3922792500     0.3726551362
    9      H      -3.6383919223     0.1857129866     0.0099125717
   10      H      -1.5512243262     0.9259942768     0.9691584045
 ----------------------------------------------------------------

    7    -582.5210755478      3.68E-09 Convergence criterion met
 Total energy in the final basis set = -582.52107555
        MP2         total energy =                  -582.81460715 au

                    Orbital Energies (a.u.)
 --------------------------------------------------------------

 Alpha MOs
 -- Occupied --
-68.775 -68.774  -6.124  -6.124  -4.230  -4.230  -4.230  -4.230
 -4.230  -4.230  -0.735  -0.729  -0.494  -0.492  -0.488  -0.486
 -0.482  -0.480

          Ground-State Mulliken Net Atomic Charges

     Atom                 Charge (a.u.)
  ----------------------------------------
      1 Si                    1.532741
      2 H                    -0.390832
      3 H                    -0.368299
      4 H                    -0.351891
      5 H                    -0.416775
      6 Si                    1.460112
      7 H                    -0.340452
      8 H                    -0.353888
      9 H                    -0.442320
     10 H                    -0.328396
  ----------------------------------------
  Sum of atomic charges =    -0.000000

                    Cartesian Multipole Moments
 -----------------------------------------------------------------
    Charge (ESU x 10^10)
                -0.0000
    Dipole Moment (Debye)
         X       0.0304      Y      -0.0113      Z       0.0050
       Tot       0.0328
    Quadrupole Moments (Debye-Ang)
        XX     -33.4365     XY       0.0419     YY     -33.5146
        XZ      -0.0084     YZ      -0.0015     ZZ     -33.4622

 Total job time:  243.00s(wall), 490.50s(cpu)
        *  Thank you very much for using Q-Chem.  Have a nice day.  *
