 Q-Chem 5.1, Q-Chem, Inc., Pleasanton, CA (2018)
 Q-Chem 5.1.2 for Intel X86 EM64T Linux

User input:
--------------------------------------------------------------
$molecule
0 1
--
0 1
Si     2.173201226     0.002277085    -0.000827763
H     2.463893195     1.428917805     0.248702748
H     1.532427706    -0.146056866    -1.323881333
H     1.257386864    -0.502442133     1.043232525
H     3.430773868    -0.772002931     0.029153171
--
0 1
Si    -1.455685360    -0.001674344     0.000549518
H    -0.932918541     0.364115800    -1.332094222
H    -1.129168606    -1.413705370     0.286738081
H    -2.921419564     0.181764118     0.022285617
H    -0.834603214     0.863825923     1.024496544
$end

$rem
BASIS = aug-cc-pVTZ
JOB_TYPE  =  BSSE
METHOD  =  MP2
SCF_CONVERGENCE  =  8
SCF_MAX_CYCLES  =  200
$end

--------------------------------------------------------------

             Standard Nuclear Orientation (Angstroms)
    I     Atom           X                Y                Z
 ----------------------------------------------------------------
    1      Si      1.8145469824     0.0000776944    -0.0000754867
    2      H       2.1065997007     1.4390697893     0.1614113587
    3      H       1.1740691077    -0.2286624307    -1.3117654124
    4      H       0.8978703782    -0.4386071776     1.0726681482
    5      H       3.0713246007    -0.7721404683     0.0779403885
    6      Si     -1.8143420025    -0.0001882299     0.0000964944
    7      H      -1.2907562527     0.2824817958    -1.3523023127
    8      H      -1.4893519471    -1.3922815690     0.3726636718
    9      H      -3.2798968995     0.1856907027     0.0099326797
   10      H      -1.1927284059     0.9259968555     0.9691573699
 ----------------------------------------------------------------

    8    -582.5152901717      3.85E-09 Convergence criterion met
 Total energy in the final basis set = -582.51529017
        MP2         total energy =                  -582.81250022 au

                    Orbital Energies (a.u.)
 --------------------------------------------------------------

 Alpha MOs
 -- Occupied --
-68.774 -68.773  -6.124  -6.123  -4.230  -4.230  -4.230  -4.229
 -4.229  -4.229  -0.745  -0.721  -0.507  -0.503  -0.492  -0.483
 -0.471  -0.467

          Ground-State Mulliken Net Atomic Charges

     Atom                 Charge (a.u.)
  ----------------------------------------
      1 Si                    1.560227
      2 H                    -0.378328
      3 H                    -0.349191
      4 H                    -0.335260
      5 H                    -0.489949
      6 Si                    1.645293
      7 H                    -0.327868
      8 H                    -0.337541
      9 H                    -0.660157
     10 H                    -0.327227
  ----------------------------------------
  Sum of atomic charges =     0.000000

                    Cartesian Multipole Moments
 -----------------------------------------------------------------
    Charge (ESU x 10^10)
                 0.0000
    Dipole Moment (Debye)
         X       0.0562      Y      -0.0225      Z       0.0100
       Tot       0.0613
    Quadrupole Moments (Debye-Ang)
        XX     -33.8374     XY       0.1115     YY     -33.4779
        XZ      -0.0231     YZ      -0.0070     ZZ     -33.2632

 Total job time:  266.59s(wall), 551.08s(cpu)
        *  Thank you very much for using Q-Chem.  Have a nice day.  *
