 Q-Chem 5.1, Q-Chem, Inc., Pleasanton, CA (2018)
 Q-Chem 5.1.0 for Intel X86 EM64T Linux

User input:
--------------------------------------------------------------
$comment
optimize molecule at MP2/6-311G+(d,p)
$end

$molecule
0 1
Si      -0.000   0.000  -0.000
H      -0.432  -0.611   1.058
H      -0.432   1.222   0.000
H      -0.432  -0.611  -1.058
H       1.296  -0.000   0.000
$end

$rem
JOBTYPE  =  opt
METHOD  =  MP2
BASIS  =  6-311G+(d,p)
SCF_MAX_CYCLES  =  200
GEOM_OPT_MAX_CYCLES  =  300
GEOM_OPT_TOL_DISPLACEMENT = 120
GEOM_OPT_TOL_ENERGY = 10
GEOM_OPT_TOL_GRADIENT = 20
$end
--------------------------------------------------------------

    9    -291.1889287991      5.11e-09  Convergence criterion met
 Total energy in the final basis set =     -291.1889287991
        MP2         total energy =                  -291.31065123 au
    9    -291.2351766866      1.44e-09  Convergence criterion met
 Total energy in the final basis set =     -291.2351766866
        MP2         total energy =                  -291.35532706 au
    9    -291.2510351106      1.49e-09  Convergence criterion met
 Total energy in the final basis set =     -291.2510351106
        MP2         total energy =                  -291.37027452 au
    8    -291.2530992403      8.06e-09  Convergence criterion met
 Total energy in the final basis set =     -291.2530992403
        MP2         total energy =                  -291.37205624 au
    8    -291.2532241773      1.89e-09  Convergence criterion met
 Total energy in the final basis set =     -291.2532241773
        MP2         total energy =                  -291.37212574 au
 **  OPTIMIZATION CONVERGED  **
 Total job time:  7.72s(wall), 25.42s(cpu)
        *  Thank you very much for using Q-Chem.  Have a nice day.  *
 Q-Chem 5.1, Q-Chem, Inc., Pleasanton, CA (2018)
 Q-Chem 5.1.0 for Intel X86 EM64T Linux

User input:
--------------------------------------------------------------
$comment
Now calculate the frequency at molecule  the same level of theory
$end

$molecule
read
$end

$rem
JOBTYPE  =  freq
METHOD  =  MP2
BASIS  =  6-311G+(d,p)
SCF_GUESS = read
SCF_MAX_CYCLES  =  200
GEOM_OPT_MAX_CYCLES  =  300
GEOM_OPT_TOL_DISPLACEMENT = 120
GEOM_OPT_TOL_ENERGY = 10
GEOM_OPT_TOL_GRADIENT = 20
$end

--------------------------------------------------------------

    6    -291.2532298454      3.54e-09  Convergence criterion met
 Total energy in the final basis set =     -291.2532298454
        MP2         total energy =                  -291.37212589 au
    6    -291.2532269495      6.01e-09  Convergence criterion met
 Total energy in the final basis set =     -291.2532269495
        MP2         total energy =                  -291.37212589 au
    6    -291.2532298966      2.78e-09  Convergence criterion met
 Total energy in the final basis set =     -291.2532298966
        MP2         total energy =                  -291.37212587 au
    6    -291.2532268697      6.10e-09  Convergence criterion met
 Total energy in the final basis set =     -291.2532268697
        MP2         total energy =                  -291.37212588 au
    6    -291.2532285517      3.65e-09  Convergence criterion met
 Total energy in the final basis set =     -291.2532285517
        MP2         total energy =                  -291.37212604 au

                    Orbital Energies (a.u.)
 --------------------------------------------------------------

 Alpha MOs
 -- Occupied --
-68.775  -6.123  -4.230  -4.230  -4.230  -0.733  -0.487  -0.487
 -0.487

          Ground-State Mulliken Net Atomic Charges

     Atom                 Charge (a.u.)
  ----------------------------------------
      1 Si                    0.654399
      2 H                    -0.163586
      3 H                    -0.163600
      4 H                    -0.163613
      5 H                    -0.163600
  ----------------------------------------
  Sum of atomic charges =    -0.000000

                    Cartesian Multipole Moments
 -----------------------------------------------------------------
    Charge (ESU x 10^10)
                -0.0000
    Dipole Moment (Debye)
         X      -0.0000      Y       0.0000      Z      -0.0013
       Tot       0.0013
    Quadrupole Moments (Debye-Ang)
        XX     -16.7580     XY       0.0000     YY     -16.7580
        XZ       0.0002     YZ      -0.0003     ZZ     -16.7579

             Standard Nuclear Orientation (Angstroms)
    I     Atom           X                Y                Z
 ----------------------------------------------------------------
    1      Si     -0.0000002048     0.0000001328    -0.0000000000
    2      H      -0.8420125776     0.1254040338    -1.2039210471
    3      H       0.6646653734    -1.3161922860     0.0000000006
    4      H      -0.8420125793     0.1254040341     1.2039210459
    5      H       1.0193626511     1.0653823583     0.0000000006
 ----------------------------------------------------------------

 Frequency:       973.26                 973.27                 973.27
 Force Cnst:      0.6115                 0.6115                 0.6115
 Red. Mass:       1.0956                 1.0956                 1.0956
 IR Intens:      199.235                199.217                199.220
 Frequency:      1012.56                1012.57                2329.93
 Force Cnst:      0.6088                 0.6088                 3.2235
 Red. Mass:       1.0078                 1.0078                 1.0078
 IR Intens:        0.000                  0.000                  0.000
 Frequency:      2333.92                2333.92                2333.92
 Force Cnst:      3.3738                 3.3738                 3.3738
 Red. Mass:       1.0512                 1.0512                 1.0512
 IR Intens:      137.880                137.888                137.890

 STANDARD THERMODYNAMIC QUANTITIES AT   298.15 K  AND     1.00 ATM

   This Molecule has  0 Imaginary Frequencies
   Zero point vibrational energy:       20.409 kcal/mol

   Atom    1 Element Si Has Mass   27.97693
   Atom    2 Element H  Has Mass    1.00783
   Atom    3 Element H  Has Mass    1.00783
   Atom    4 Element H  Has Mass    1.00783
   Atom    5 Element H  Has Mass    1.00783
   Molecular Mass:    32.008250 amu
   Principal axes and moments of inertia in amu*Bohr^2:
                             1           2           3
    Eigenvalues --       20.86608    20.86609    20.86610
          X              -0.00000     0.00000     1.00000
          Y               1.00000     0.00000     0.00000
          Z               0.00000     1.00000     0.00000
   Rotational Symmetry Number is   1
   The Molecule is a Spherical Top
   Translational Enthalpy:        0.889 kcal/mol
   Rotational Enthalpy:           0.889 kcal/mol
   Vibrational Enthalpy:         20.531 kcal/mol
   gas constant (RT):             0.592 kcal/mol
   Translational Entropy:        36.322  cal/mol.K
   Rotational Entropy:           16.859  cal/mol.K
   Vibrational Entropy:           0.492  cal/mol.K

   Total Enthalpy:               22.901 kcal/mol
   Total Entropy:                53.673  cal/mol.K

 Total job time:  26.49s(wall), 86.68s(cpu)
        *  Thank you very much for using Q-Chem.  Have a nice day.  *
