 Q-Chem 5.1, Q-Chem, Inc., Pleasanton, CA (2018)
 Q-Chem 5.1.0 for Intel X86 EM64T Linux

User input:
--------------------------------------------------------------
$molecule
0 1
Si         1.913   0.000  -0.000
Si        -0.049   0.000  -0.000
H        -0.496   1.218  -0.000
H        -0.496  -0.609   1.055
H        -0.496  -0.609  -1.055
H         2.360   0.609   1.055
H         2.360   0.609  -1.055
H         2.360  -1.218   0.000
$end

$rem
JOBTYPE  =  opt
METHOD  =  MP2
BASIS  =  6-311G+(d,p)
SCF_MAX_CYCLES  =  200
GEOM_OPT_MAX_CYCLES  =  300
GEOM_OPT_TOL_DISPLACEMENT = 120
GEOM_OPT_TOL_ENERGY = 10
GEOM_OPT_TOL_GRADIENT = 20
$end
--------------------------------------------------------------

   10    -581.2006834612      6.86e-09  Convergence criterion met
 Total energy in the final basis set =     -581.2006834612
        MP2         total energy =                  -581.42884744 au
    9    -581.2795162378      3.62e-09  Convergence criterion met
 Total energy in the final basis set =     -581.2795162378
        MP2         total energy =                  -581.50383549 au
    9    -581.3275312084      3.27e-09  Convergence criterion met
 Total energy in the final basis set =     -581.3275312084
        MP2         total energy =                  -581.54855835 au
    9    -581.3508718577      3.00e-09  Convergence criterion met
 Total energy in the final basis set =     -581.3508718577
        MP2         total energy =                  -581.56937592 au
    9    -581.3552854178      1.43e-09  Convergence criterion met
 Total energy in the final basis set =     -581.3552854178
        MP2         total energy =                  -581.57275462 au
 **  OPTIMIZATION CONVERGED  **
 Total job time:  45.94s(wall), 129.22s(cpu)
        *  Thank you very much for using Q-Chem.  Have a nice day.  *
 Q-Chem 5.1, Q-Chem, Inc., Pleasanton, CA (2018)
 Q-Chem 5.1.0 for Intel X86 EM64T Linux

User input:
--------------------------------------------------------------
$comment
Now calculate the frequency at molecule  the same level of theory
$end

$molecule
read
$end

$rem
JOBTYPE  =  freq
METHOD  =  MP2
BASIS  =  6-311G+(d,p)
SCF_GUESS = read
SCF_MAX_CYCLES  =  200
GEOM_OPT_MAX_CYCLES  =  300
GEOM_OPT_TOL_DISPLACEMENT = 120
GEOM_OPT_TOL_ENERGY = 10
GEOM_OPT_TOL_GRADIENT = 20
$end

--------------------------------------------------------------

    6    -581.3560161329      8.15e-09  Convergence criterion met
 Total energy in the final basis set =     -581.3560161329
        MP2         total energy =                  -581.57307853 au
    6    -581.3560129173      6.68e-09  Convergence criterion met
 Total energy in the final basis set =     -581.3560129173
        MP2         total energy =                  -581.57307855 au
    6    -581.3560148044      4.74e-09  Convergence criterion met
 Total energy in the final basis set =     -581.3560148044
        MP2         total energy =                  -581.57307882 au
    6    -581.3560138814      4.42e-09  Convergence criterion met
 Total energy in the final basis set =     -581.3560138814
        MP2         total energy =                  -581.57307879 au
    6    -581.3560156577      7.82e-09  Convergence criterion met
 Total energy in the final basis set =     -581.3560156577
        MP2         total energy =                  -581.57307878 au

                    Orbital Energies (a.u.)
 --------------------------------------------------------------

 Alpha MOs
 -- Occupied --
-68.774 -68.774  -6.122  -6.122  -4.229  -4.229  -4.229  -4.229
 -4.229  -4.229  -0.760  -0.681  -0.501  -0.501  -0.474  -0.474
 -0.406

          Ground-State Mulliken Net Atomic Charges

     Atom                 Charge (a.u.)
  ----------------------------------------
      1 Si                    0.425946
      2 Si                    0.425870
      3 H                    -0.141962
      4 H                    -0.141982
      5 H                    -0.141982
      6 H                    -0.141967
      7 H                    -0.141967
      8 H                    -0.141954
  ----------------------------------------
  Sum of atomic charges =    -0.000000

                    Cartesian Multipole Moments
 -----------------------------------------------------------------
    Charge (ESU x 10^10)
                -0.0000
    Dipole Moment (Debye)
         X      -0.0003      Y      -0.0000      Z       0.0017
       Tot       0.0017
    Quadrupole Moments (Debye-Ang)
        XX     -31.8057     XY       0.0000     YY     -31.8056
        XZ       0.0001     YZ       0.0000     ZZ     -32.9644

             Standard Nuclear Orientation (Angstroms)
    I     Atom           X                Y                Z
 ----------------------------------------------------------------
    1      Si     -0.0000000021    -0.0000000000     1.1710208326
    2      Si     -0.0000000010    -0.0000000018    -1.1710208326
    3      H       1.3865817003    -0.0000000000    -1.6825572842
    4      H      -0.6932908502     1.2008149769    -1.6825572842
    5      H      -0.6932908502    -1.2008149769    -1.6825572842
    6      H       0.6932908502     1.2008149769     1.6825572842
    7      H       0.6932908502    -1.2008149769     1.6825572842
    8      H      -1.3865817003     0.0000000000     1.6825572842
 ----------------------------------------------------------------

 Frequency:       148.35                 393.14                 393.14
 Force Cnst:      0.0131                 0.0937                 0.0937
 Red. Mass:       1.0078                 1.0295                 1.0295
 IR Intens:        0.000                 34.870                 34.870
 Frequency:       447.12                 663.47                 663.47
 Force Cnst:      0.8179                 0.3121                 0.3121
 Red. Mass:       6.9435                 1.2033                 1.2033
 IR Intens:        0.000                  0.000                  0.000
 Frequency:       896.92                 976.76                 978.07
 Force Cnst:      0.5213                 0.6279                 0.5791
 Red. Mass:       1.0999                 1.1170                 1.0275
 IR Intens:      637.702                  0.000                  0.000
 Frequency:       978.07                 994.52                 994.52
 Force Cnst:      0.5791                 0.6059                 0.6059
 Red. Mass:       1.0275                 1.0397                 1.0397
 IR Intens:        0.000                117.325                117.324
 Frequency:      2299.29                2307.86                2307.86
 Force Cnst:      3.1719                 3.2954                 3.2954
 Red. Mass:       1.0183                 1.0501                 1.0501
 IR Intens:      130.262                  0.000                  0.000
 Frequency:      2308.80                2316.06                2316.06
 Force Cnst:      3.2018                 3.3260                 3.3260
 Red. Mass:       1.0195                 1.0524                 1.0524
 IR Intens:        0.000                232.381                232.380

 STANDARD THERMODYNAMIC QUANTITIES AT   298.15 K  AND     1.00 ATM

   This Molecule has  0 Imaginary Frequencies
   Zero point vibrational energy:       31.999 kcal/mol

   Atom    1 Element Si Has Mass   27.97693
   Atom    2 Element Si Has Mass   27.97693
   Atom    3 Element H  Has Mass    1.00783
   Atom    4 Element H  Has Mass    1.00783
   Atom    5 Element H  Has Mass    1.00783
   Atom    6 Element H  Has Mass    1.00783
   Atom    7 Element H  Has Mass    1.00783
   Atom    8 Element H  Has Mass    1.00783
   Molecular Mass:    62.000840 amu
   Principal axes and moments of inertia in amu*Bohr^2:
                             1           2           3
    Eigenvalues --       41.51712   355.89568   355.89568
          X              -0.00000     0.99459    -0.10385
          Y               0.00000     0.10385     0.99459
          Z               1.00000     0.00000    -0.00000
   Rotational Symmetry Number is   6
   The Molecule is a Symmetric Top
   Translational Enthalpy:        0.889 kcal/mol
   Rotational Enthalpy:           0.889 kcal/mol
   Vibrational Enthalpy:         33.287 kcal/mol
   gas constant (RT):             0.592 kcal/mol
   Translational Entropy:        38.293  cal/mol.K
   Rotational Entropy:           19.618  cal/mol.K
   Vibrational Entropy:           6.821  cal/mol.K

   Total Enthalpy:               35.657 kcal/mol
   Total Entropy:                64.732  cal/mol.K

 Total job time:  47.32s(wall), 133.61s(cpu)
        *  Thank you very much for using Q-Chem.  Have a nice day.  *
