 Q-Chem 5.1, Q-Chem, Inc., Pleasanton, CA (2018)
 Q-Chem 5.1.0 for Intel X86 EM64T Linux

User input:
--------------------------------------------------------------
$molecule
0 1
C        -0.5181335455   -1.5448244342    1.0789763596
Si       -0.4176060448   -0.0000088188   -0.0047181491
C        -1.8587287117    0.0026668154   -1.2260616887
C        -0.5183801422    1.5398248960    1.0860205823
C         1.2123935846    0.0023153075   -0.9688171591
C         2.4700188541    0.0005054933   -0.0900329286
H         0.2841633249   -1.5684191814    1.8229899192
H        -1.4691486420   -1.5844162369    1.6198693962
H        -0.4410293720   -2.4568377427    0.4781737585
H        -1.8321899930    0.8874949504   -1.8700848514
H        -2.8213964399    0.0015389870   -0.7047670735
H        -1.8322095838   -0.8793382580   -1.8739461291
H        -0.4414741021    2.4545928044    0.4893953493
H         0.2839433890    1.5601661090    1.8301015506
H        -1.4693792683    1.5767589606    1.6271295869
H         1.2260380993    0.8789882439   -1.6299180349
H         1.2262321117   -0.8714144206   -1.6337990563
H         3.3839832004    0.0019224482   -0.6925203068
H         2.5039072871    0.8815886403    0.5578576545
H         2.5040842193   -0.8834150808    0.5539727900
$end

$rem
JOBTYPE  =  opt
METHOD  =  MP2
BASIS  =  6-311G+(d,p)
SCF_MAX_CYCLES  =  200
GEOM_OPT_MAX_CYCLES  =  300
GEOM_OPT_TOL_DISPLACEMENT = 120
GEOM_OPT_TOL_ENERGY = 10
GEOM_OPT_TOL_GRADIENT = 20
$end
--------------------------------------------------------------

   11    -486.5210683386      6.86e-09  Convergence criterion met
 Total energy in the final basis set =     -486.5210683386
        MP2         total energy =                  -487.40278265 au
    8    -486.5208762153      7.51e-09  Convergence criterion met
 Total energy in the final basis set =     -486.5208762153
        MP2         total energy =                  -487.40287135 au
    7    -486.5208905124      3.83e-09  Convergence criterion met
 Total energy in the final basis set =     -486.5208905124
        MP2         total energy =                  -487.40287300 au
    7    -486.5208906963      3.49e-09  Convergence criterion met
 Total energy in the final basis set =     -486.5208906963
        MP2         total energy =                  -487.40287331 au
    6    -486.5208871692      5.25e-09  Convergence criterion met
 Total energy in the final basis set =     -486.5208871692
        MP2         total energy =                  -487.40287334 au
 **  OPTIMIZATION CONVERGED  **
 Total job time:  360.83s(wall), 839.61s(cpu)
        *  Thank you very much for using Q-Chem.  Have a nice day.  *
 Q-Chem 5.1, Q-Chem, Inc., Pleasanton, CA (2018)
 Q-Chem 5.1.0 for Intel X86 EM64T Linux

User input:
--------------------------------------------------------------
$comment
Now calculate the frequency at molecule  the same level of theory
$end

$molecule
read
$end

$rem
JOBTYPE  =  freq
METHOD  =  MP2
BASIS  =  6-311G+(d,p)
SCF_GUESS = read
SCF_MAX_CYCLES  =  200
GEOM_OPT_MAX_CYCLES  =  300
GEOM_OPT_TOL_DISPLACEMENT = 120
GEOM_OPT_TOL_ENERGY = 10
GEOM_OPT_TOL_GRADIENT = 20
$end

--------------------------------------------------------------

    6    -486.5208845751      3.89e-09  Convergence criterion met
 Total energy in the final basis set =     -486.5208845751
        MP2         total energy =                  -487.40287325 au
    6    -486.5208941338      5.00e-09  Convergence criterion met
 Total energy in the final basis set =     -486.5208941338
        MP2         total energy =                  -487.40287290 au
    7    -486.5208765100      3.18e-09  Convergence criterion met
 Total energy in the final basis set =     -486.5208765100
        MP2         total energy =                  -487.40287292 au
    6    -486.5208792798      2.26e-09  Convergence criterion met
 Total energy in the final basis set =     -486.5208792798
        MP2         total energy =                  -487.40287308 au
    6    -486.5208916857      8.97e-09  Convergence criterion met
 Total energy in the final basis set =     -486.5208916857
        MP2         total energy =                  -487.40287307 au

                    Orbital Energies (a.u.)
 --------------------------------------------------------------

 Alpha MOs
 -- Occupied --
-68.746 -11.215 -11.199 -11.195 -11.194 -11.194  -6.094  -4.200
 -4.200  -4.200  -1.016  -0.957  -0.919  -0.919  -0.833  -0.630
 -0.600  -0.577  -0.559  -0.557  -0.546  -0.533  -0.533  -0.526
 -0.503  -0.486  -0.423  -0.423  -0.403

          Ground-State Mulliken Net Atomic Charges

     Atom                 Charge (a.u.)
  ----------------------------------------
      1 C                    -0.807549
      2 Si                    1.144295
      3 C                    -0.757988
      4 C                    -0.807495
      5 C                    -0.429894
      6 C                    -0.596338
      7 H                     0.163961
      8 H                     0.166818
      9 H                     0.168882
     10 H                     0.165071
     11 H                     0.164373
     12 H                     0.165068
     13 H                     0.168882
     14 H                     0.163946
     15 H                     0.166816
     16 H                     0.164629
     17 H                     0.164629
     18 H                     0.143967
     19 H                     0.143927
     20 H                     0.144001
  ----------------------------------------
  Sum of atomic charges =     0.000000

                    Cartesian Multipole Moments
 -----------------------------------------------------------------
    Charge (ESU x 10^10)
                 0.0000
    Dipole Moment (Debye)
         X       0.0259      Y      -0.0004      Z      -0.0833
       Tot       0.0872
    Quadrupole Moments (Debye-Ang)
        XX     -50.5365     XY      -0.0014     YY     -50.3560
        XZ      -0.5246     YZ       0.0005     ZZ     -50.5428

             Standard Nuclear Orientation (Angstroms)
    I     Atom           X                Y                Z
 ----------------------------------------------------------------
    1      C      -0.5127642578    -1.5348332898     1.0816957170
    2      Si     -0.4187131785    -0.0000015784    -0.0043504334
    3      C      -1.8575073014    -0.0004541952    -1.2167789432
    4      C      -0.5127715263     1.5356343286     1.0805576553
    5      C       1.2071696001    -0.0003538746    -0.9632515917
    6      C       2.4657396813    -0.0000287056    -0.0796801664
    7      H       0.2881280819    -1.5488624661     1.8282568346
    8      H      -1.4660703117    -1.5771073878     1.6196424362
    9      H      -0.4280899844    -2.4490654429     0.4841037357
   10      H      -1.8322459514     0.8837596151    -1.8626846193
   11      H      -2.8183466683    -0.0002604469    -0.6908611370
   12      H      -1.8322429894    -0.8851474550    -1.8620276518
   13      H      -0.4281076348     2.4494238056     0.4822875468
   14      H       0.2881241617     1.5502236468     1.8271044513
   15      H      -1.4660754155     1.5782994056     1.6184773582
   16      H       1.2212235466     0.8755812300    -1.6255918790
   17      H       1.2212236754    -0.8767761365    -1.6249471106
   18      H       3.3806160703    -0.0002496111    -0.6806439800
   19      H       2.4973252405     0.8834964381     0.5659421742
   20      H       2.4973255018    -0.8830786771     0.5665918828
 ----------------------------------------------------------------

 Frequency:        49.92                 139.17                 140.26
 Force Cnst:      0.0028                 0.0118                 0.0288
 Red. Mass:       1.9172                 1.0323                 2.4862
 IR Intens:        0.001                  0.004                  0.203
 Frequency:       156.15                 164.32                 180.66
 Force Cnst:      0.0154                 0.0168                 0.0297
 Red. Mass:       1.0715                 1.0579                 1.5450
 IR Intens:        0.043                  0.060                  0.192
 Frequency:       199.70                 201.45                 222.20
 Force Cnst:      0.0423                 0.0555                 0.0673
 Red. Mass:       1.8005                 2.3212                 2.3146
 IR Intens:        1.605                  1.424                  4.285
 Frequency:       263.98                 328.78                 590.30
 Force Cnst:      0.0621                 0.1883                 0.6695
 Red. Mass:       1.5121                 2.9568                 3.2609
 IR Intens:        2.343                  3.975                  0.424
 Frequency:       658.22                 687.68                 689.11
 Force Cnst:      0.3087                 0.7272                 0.3273
 Red. Mass:       1.2094                 2.6100                 1.1697
 IR Intens:        0.502                 13.742                  0.004
 Frequency:       708.70                 708.99                 776.00
 Force Cnst:      0.6888                 0.6227                 0.5579
 Red. Mass:       2.3277                 2.1026                 1.5724
 IR Intens:        8.733                  8.265                 22.585
 Frequency:       791.50                 869.49                 871.47
 Force Cnst:      0.5137                 0.6972                 0.7350
 Red. Mass:       1.3919                 1.5652                 1.6426
 IR Intens:       22.622                 68.476                 74.711
 Frequency:       891.91                 991.59                 995.41
 Force Cnst:      0.8126                 0.7172                 0.7685
 Red. Mass:       1.7339                 1.2381                 1.3164
 IR Intens:      130.243                 23.005                  3.266
 Frequency:      1054.98                1275.65                1284.82
 Force Cnst:      1.8444                 1.1954                 1.5277
 Red. Mass:       2.8127                 1.2468                 1.5707
 IR Intens:       19.125                  0.894                  8.569
 Frequency:      1301.97                1302.72                1313.97
 Force Cnst:      1.2625                 1.2654                 1.2569
 Red. Mass:       1.2641                 1.2655                 1.2356
 IR Intens:       44.655                 43.534                 11.078
 Frequency:      1424.44                1457.80                1462.45
 Force Cnst:      1.4331                 1.3567                 1.3263
 Red. Mass:       1.1987                 1.0836                 1.0525
 IR Intens:        1.049                  2.847                  0.000
 Frequency:      1463.86                1465.04                1476.72
 Force Cnst:      1.3281                 1.3326                 1.3462
 Red. Mass:       1.0519                 1.0538                 1.0477
 IR Intens:        0.045                  0.296                  4.606
 Frequency:      1478.03                1482.83                1516.30
 Force Cnst:      1.3517                 1.3552                 1.4154
 Red. Mass:       1.0502                 1.0461                 1.0449
 IR Intens:        8.073                  9.512                  3.872
 Frequency:      1525.06                3055.73                3061.46
 Force Cnst:      1.4230                 5.8299                 5.7200
 Red. Mass:       1.0384                 1.0597                 1.0358
 IR Intens:        6.384                 16.593                 11.406
 Frequency:      3061.63                3061.77                3065.23
 Force Cnst:      5.7201                 5.7198                 5.7306
 Red. Mass:       1.0357                 1.0356                 1.0352
 IR Intens:        9.648                  5.083                 31.893
 Frequency:      3105.11                3145.47                3150.77
 Force Cnst:      6.2524                 6.4259                 6.4443
 Red. Mass:       1.1006                 1.1023                 1.1018
 IR Intens:        8.720                 31.163                 25.167
 Frequency:      3152.97                3153.00                3155.07
 Force Cnst:      6.4445                 6.4439                 6.4496
 Red. Mass:       1.1003                 1.1001                 1.0997
 IR Intens:        6.806                  3.732                 29.567
 Frequency:      3155.36                3156.68                3157.21
 Force Cnst:      6.4524                 6.4600                 6.4577
 Red. Mass:       1.0999                 1.1003                 1.0996
 IR Intens:       20.935                  0.525                 22.147

 STANDARD THERMODYNAMIC QUANTITIES AT   298.15 K  AND     1.00 ATM

   This Molecule has  0 Imaginary Frequencies
   Zero point vibrational energy:      111.794 kcal/mol

   Atom    1 Element C  Has Mass   12.00000
   Atom    2 Element Si Has Mass   27.97693
   Atom    3 Element C  Has Mass   12.00000
   Atom    4 Element C  Has Mass   12.00000
   Atom    5 Element C  Has Mass   12.00000
   Atom    6 Element C  Has Mass   12.00000
   Atom    7 Element H  Has Mass    1.00783
   Atom    8 Element H  Has Mass    1.00783
   Atom    9 Element H  Has Mass    1.00783
   Atom   10 Element H  Has Mass    1.00783
   Atom   11 Element H  Has Mass    1.00783
   Atom   12 Element H  Has Mass    1.00783
   Atom   13 Element H  Has Mass    1.00783
   Atom   14 Element H  Has Mass    1.00783
   Atom   15 Element H  Has Mass    1.00783
   Atom   16 Element H  Has Mass    1.00783
   Atom   17 Element H  Has Mass    1.00783
   Atom   18 Element H  Has Mass    1.00783
   Atom   19 Element H  Has Mass    1.00783
   Atom   20 Element H  Has Mass    1.00783
   Molecular Mass:   102.086550 amu
   Principal axes and moments of inertia in amu*Bohr^2:
                             1           2           3
    Eigenvalues --      595.01384   974.95500   975.65793
          X               0.99993     0.01146    -0.00000
          Y              -0.00000     0.00041     1.00000
          Z              -0.01146     0.99993    -0.00041
   Rotational Symmetry Number is   1
   The Molecule is an Asymmetric Top
   Translational Enthalpy:        0.889 kcal/mol
   Rotational Enthalpy:           0.889 kcal/mol
   Vibrational Enthalpy:        116.694 kcal/mol
   gas constant (RT):             0.592 kcal/mol
   Translational Entropy:        39.779  cal/mol.K
   Rotational Entropy:           27.828  cal/mol.K
   Vibrational Entropy:          30.447  cal/mol.K

   Total Enthalpy:              119.064 kcal/mol
   Total Entropy:                98.054  cal/mol.K

 Total job time:  7115.67s(wall), 16313.19s(cpu)
        *  Thank you very much for using Q-Chem.  Have a nice day.  *
