 Q-Chem 5.1, Q-Chem, Inc., Pleasanton, CA (2018)
 Q-Chem 5.1.0 for Intel X86 EM64T Linux

User input:
--------------------------------------------------------------
$molecule
0 1
C         0.5402087113    0.7183865438    1.7526815259
Si        0.4092544596    0.0106586400    0.0122835363
C         1.8438845891    0.6198050534   -1.0561011399
C         0.4282334870   -1.8776922298    0.0799011338
C        -1.2288520427    0.5763472094   -0.7647268465
N        -2.3522634626   -0.0293941565   -0.0196469543
H        -0.3477098698    0.4510016974    2.3321680344
H         1.4216552346    0.3390083589    2.2791743988
H         0.6087157096    1.8107180378    1.7318301909
H         1.7907314185    0.2093532350   -2.0695064172
H         2.8074680369    0.3237670415   -0.6292391397
H         1.8425757394    1.7114028530   -1.1395675917
H         0.2905514997   -2.3173701589   -0.9135979242
H        -0.3636131170   -2.2592693361    0.7320158772
H         1.3805732597   -2.2472075104    0.4733436133
H        -1.2483268033    0.3818537228   -1.8512869103
H        -1.3003313630    1.6648214274   -0.6487804508
H        -3.2396512799    0.3362735789   -0.3643798763
H        -2.3757222961   -1.0302034267   -0.2066225705
$end

$rem
JOBTYPE  =  opt
METHOD  =  MP2
BASIS  =  6-311G+(d,p)
SCF_MAX_CYCLES  =  200
GEOM_OPT_MAX_CYCLES  =  300
GEOM_OPT_TOL_DISPLACEMENT = 120
GEOM_OPT_TOL_ENERGY = 10
GEOM_OPT_TOL_GRADIENT = 20
$end
--------------------------------------------------------------

   12    -502.5138937916      7.77e-09  Convergence criterion met
 Total energy in the final basis set =     -502.5138937916
        MP2         total energy =                  -503.42417457 au
   10    -502.5140869622      3.56e-09  Convergence criterion met
 Total energy in the final basis set =     -502.5140869622
        MP2         total energy =                  -503.42433392 au
    9    -502.5141958637      3.22e-09  Convergence criterion met
 Total energy in the final basis set =     -502.5141958637
        MP2         total energy =                  -503.42434927 au
    9    -502.5142504151      3.07e-09  Convergence criterion met
 Total energy in the final basis set =     -502.5142504151
        MP2         total energy =                  -503.42435479 au
    8    -502.5142553659      7.52e-09  Convergence criterion met
 Total energy in the final basis set =     -502.5142553659
        MP2         total energy =                  -503.42435601 au
 **  OPTIMIZATION CONVERGED  **
 Total job time:  397.71s(wall), 940.95s(cpu)
        *  Thank you very much for using Q-Chem.  Have a nice day.  *
 Q-Chem 5.1, Q-Chem, Inc., Pleasanton, CA (2018)
 Q-Chem 5.1.0 for Intel X86 EM64T Linux

User input:
--------------------------------------------------------------
$comment
Now calculate the frequency at molecule  the same level of theory
$end

$molecule
read
$end

$rem
JOBTYPE  =  freq
METHOD  =  MP2
BASIS  =  6-311G+(d,p)
SCF_GUESS = read
SCF_MAX_CYCLES  =  200
GEOM_OPT_MAX_CYCLES  =  300
GEOM_OPT_TOL_DISPLACEMENT = 120
GEOM_OPT_TOL_ENERGY = 10
GEOM_OPT_TOL_GRADIENT = 20
$end

--------------------------------------------------------------

    6    -502.5142505137      8.43e-09  Convergence criterion met
 Total energy in the final basis set =     -502.5142505137
        MP2         total energy =                  -503.42435606 au
    7    -502.5142739930      4.12e-09  Convergence criterion met
 Total energy in the final basis set =     -502.5142739930
        MP2         total energy =                  -503.42435540 au
    7    -502.5142247259      7.62e-09  Convergence criterion met
 Total energy in the final basis set =     -502.5142247259
        MP2         total energy =                  -503.42435541 au
    7    -502.5142569764      5.46e-09  Convergence criterion met
 Total energy in the final basis set =     -502.5142569764
        MP2         total energy =                  -503.42435611 au
    7    -502.5142431406      3.78e-09  Convergence criterion met
 Total energy in the final basis set =     -502.5142431406
        MP2         total energy =                  -503.42435613 au

                    Orbital Energies (a.u.)
 --------------------------------------------------------------

 Alpha MOs
 -- Occupied --
-68.747 -15.540 -11.226 -11.196 -11.196 -11.190  -6.094  -4.201
 -4.201  -4.201  -1.164  -0.965  -0.921  -0.917  -0.878  -0.665
 -0.614  -0.602  -0.567  -0.559  -0.553  -0.540  -0.535  -0.527
 -0.524  -0.431  -0.426  -0.421  -0.377

          Ground-State Mulliken Net Atomic Charges

     Atom                 Charge (a.u.)
  ----------------------------------------
      1 C                    -0.782620
      2 Si                    1.159465
      3 C                    -0.764403
      4 C                    -0.811589
      5 C                    -0.618771
      6 N                    -0.451603
      7 H                     0.188449
      8 H                     0.161948
      9 H                     0.163064
     10 H                     0.162667
     11 H                     0.165549
     12 H                     0.163294
     13 H                     0.169776
     14 H                     0.166094
     15 H                     0.168539
     16 H                     0.142929
     17 H                     0.161131
     18 H                     0.231668
     19 H                     0.224415
  ----------------------------------------
  Sum of atomic charges =     0.000000

                    Cartesian Multipole Moments
 -----------------------------------------------------------------
    Charge (ESU x 10^10)
                 0.0000
    Dipole Moment (Debye)
         X      -0.1432      Y      -0.1349      Z      -1.2079
       Tot       1.2238
    Quadrupole Moments (Debye-Ang)
        XX     -47.3148     XY       0.0101     YY     -48.1794
        XZ       3.5741     YZ      -0.2171     ZZ     -51.1296

             Standard Nuclear Orientation (Angstroms)
    I     Atom           X                Y                Z
 ----------------------------------------------------------------
    1      C       0.6097939335     0.4961584750     1.8070193041
    2      Si      0.4118480139     0.0010416811     0.0080567316
    3      C       1.8288241629     0.6848881612    -1.0235050402
    4      C       0.3675337335    -1.8755127695    -0.1384190554
    5      C      -1.2194698348     0.6993801658    -0.6555609618
    6      N      -2.3635087729     0.0743917462     0.0383011225
    7      H      -0.2683583402     0.1876126780     2.3823808953
    8      H       1.4950214103     0.0332796601     2.2560295968
    9      H       0.7121437642     1.5818511908     1.9086829943
   10      H       1.7414608928     0.3837183678    -2.0727999155
   11      H       2.7943970459     0.3233569433    -0.6539116156
   12      H       1.8519087059     1.7794589924    -0.9906554756
   13      H       0.1863603743    -2.1935743168    -1.1710726626
   14      H      -0.4171004718    -2.3062843556     0.4926569807
   15      H       1.3191152148    -2.3147544050     0.1798183098
   16      H      -1.2595083255     0.6083314025    -1.7538978939
   17      H      -1.2387128658     1.7735945035    -0.4338926613
   18      H      -3.2387575275     0.4904628987    -0.2656937342
   19      H      -2.4193726315    -0.9118635129    -0.1957523984
 ----------------------------------------------------------------

 Frequency:        78.42                 131.98                 141.19
 Force Cnst:      0.0093                 0.0197                 0.0143
 Red. Mass:       2.5790                 1.9166                 1.2193
 IR Intens:        2.265                  1.016                  0.660
 Frequency:       156.94                 165.36                 185.55
 Force Cnst:      0.0155                 0.0183                 0.0336
 Red. Mass:       1.0713                 1.1379                 1.6549
 IR Intens:        0.055                  3.834                  1.136
 Frequency:       199.30                 210.79                 220.37
 Force Cnst:      0.0559                 0.0468                 0.0659
 Red. Mass:       2.3899                 1.7877                 2.3044
 IR Intens:        0.512                  4.322                  6.019
 Frequency:       288.19                 336.73                 594.97
 Force Cnst:      0.0619                 0.2493                 0.6676
 Red. Mass:       1.2641                 3.7311                 3.2009
 IR Intens:       48.140                 15.865                  1.129
 Frequency:       686.32                 692.51                 692.89
 Force Cnst:      0.4981                 0.3324                 0.4069
 Red. Mass:       1.7948                 1.1766                 1.4386
 IR Intens:        5.418                  1.401                  5.715
 Frequency:       711.33                 716.70                 779.68
 Force Cnst:      0.6464                 0.7800                 0.5770
 Red. Mass:       2.1682                 2.5774                 1.6111
 IR Intens:        8.639                  9.110                 39.520
 Frequency:       814.26                 872.71                 876.07
 Force Cnst:      0.5233                 0.7037                 0.7502
 Red. Mass:       1.3396                 1.5682                 1.6590
 IR Intens:       36.871                142.986                 72.311
 Frequency:       895.56                 929.65                1077.11
 Force Cnst:      0.8291                 0.8042                 2.0022
 Red. Mass:       1.7546                 1.5794                 2.9291
 IR Intens:      127.116                 26.909                  1.133
 Frequency:      1108.10                1280.62                1300.84
 Force Cnst:      0.7925                 1.1990                 1.2630
 Red. Mass:       1.0954                 1.2409                 1.2667
 IR Intens:        8.675                  4.527                 46.210
 Frequency:      1302.64                1312.85                1365.78
 Force Cnst:      1.2653                 1.2560                 1.5232
 Red. Mass:       1.2656                 1.2369                 1.3859
 IR Intens:       42.633                 13.272                  1.318
 Frequency:      1461.97                1465.68                1465.91
 Force Cnst:      1.3251                 1.3312                 1.3315
 Red. Mass:       1.0522                 1.0518                 1.0517
 IR Intens:        0.006                  0.176                  0.194
 Frequency:      1473.98                1477.18                1483.94
 Force Cnst:      1.3442                 1.3494                 1.3577
 Red. Mass:       1.0501                 1.0496                 1.0465
 IR Intens:        5.061                  5.499                  6.693
 Frequency:      1490.87                1659.16                3005.09
 Force Cnst:      1.4014                 1.7548                 5.6813
 Red. Mass:       1.0702                 1.0819                 1.0678
 IR Intens:        8.458                 28.489                 56.110
 Frequency:      3060.81                3062.32                3064.69
 Force Cnst:      5.7170                 5.7224                 5.7298
 Red. Mass:       1.0357                 1.0357                 1.0354
 IR Intens:        7.364                  7.585                  6.794
 Frequency:      3099.77                3152.76                3154.47
 Force Cnst:      6.1803                 6.4424                 6.4496
 Red. Mass:       1.0917                 1.1001                 1.1001
 IR Intens:       17.189                  6.400                  1.642
 Frequency:      3155.11                3156.05                3156.35
 Force Cnst:      6.4520                 6.4535                 6.4570
 Red. Mass:       1.1001                 1.0997                 1.1000
 IR Intens:        9.215                 26.312                 15.807
 Frequency:      3166.01                3534.03                3628.71
 Force Cnst:      6.4979                 7.7268                 8.4829
 Red. Mass:       1.1003                 1.0500                 1.0934
 IR Intens:        7.372                  0.611                  2.999

 STANDARD THERMODYNAMIC QUANTITIES AT   298.15 K  AND     1.00 ATM

   This Molecule has  0 Imaginary Frequencies
   Zero point vibrational energy:      105.074 kcal/mol

   Atom    1 Element C  Has Mass   12.00000
   Atom    2 Element Si Has Mass   27.97693
   Atom    3 Element C  Has Mass   12.00000
   Atom    4 Element C  Has Mass   12.00000
   Atom    5 Element C  Has Mass   12.00000
   Atom    6 Element N  Has Mass   14.00307
   Atom    7 Element H  Has Mass    1.00783
   Atom    8 Element H  Has Mass    1.00783
   Atom    9 Element H  Has Mass    1.00783
   Atom   10 Element H  Has Mass    1.00783
   Atom   11 Element H  Has Mass    1.00783
   Atom   12 Element H  Has Mass    1.00783
   Atom   13 Element H  Has Mass    1.00783
   Atom   14 Element H  Has Mass    1.00783
   Atom   15 Element H  Has Mass    1.00783
   Atom   16 Element H  Has Mass    1.00783
   Atom   17 Element H  Has Mass    1.00783
   Atom   18 Element H  Has Mass    1.00783
   Atom   19 Element H  Has Mass    1.00783
   Molecular Mass:   103.081790 amu
   Principal axes and moments of inertia in amu*Bohr^2:
                             1           2           3
    Eigenvalues --      590.83663   958.19515   959.88773
          X               0.99992     0.01087     0.00704
          Y              -0.01100     0.99975     0.01935
          Z              -0.00683    -0.01943     0.99979
   Rotational Symmetry Number is   1
   The Molecule is an Asymmetric Top
   Translational Enthalpy:        0.889 kcal/mol
   Rotational Enthalpy:           0.889 kcal/mol
   Vibrational Enthalpy:        109.870 kcal/mol
   gas constant (RT):             0.592 kcal/mol
   Translational Entropy:        39.808  cal/mol.K
   Rotational Entropy:           27.787  cal/mol.K
   Vibrational Entropy:          29.169  cal/mol.K

   Total Enthalpy:              112.240 kcal/mol
   Total Entropy:                96.764  cal/mol.K

 Total job time:  6280.96s(wall), 14455.88s(cpu)
        *  Thank you very much for using Q-Chem.  Have a nice day.  *
