 Q-Chem 5.1, Q-Chem, Inc., Pleasanton, CA (2018)
 Q-Chem 5.1.0 for Intel X86 EM64T Linux

User input:
--------------------------------------------------------------
$molecule
0 1
C         0.4677216092   -1.0835838707    1.5421256389
Si        0.4066474198   -0.0048406518   -0.0001537527
C         1.8241161152    1.2443989542    0.0067235417
C         0.4675664083   -1.0663542669   -1.5543490797
C        -1.2408838224    0.9465422942    0.0052246699
O        -2.2739482047   -0.0592336105   -0.0003388037
H        -0.4008270463   -1.7473226116    1.5703496219
H         1.3706627288   -1.7015932251    1.5678442873
H         0.4531494283   -0.4760739216    2.4525854652
H         1.7914104045    1.8938349540   -0.8738473971
H         2.7929377404    0.7348756245    0.0038468241
H         1.7914970675    1.8840231766    0.8944496494
H         0.4529802180   -0.4487463763   -2.4579891999
H        -0.4010343765   -1.7296730629   -1.5899037515
H         1.3704593941   -1.6841055524   -1.5870004507
H        -1.3204570716    1.6019155489   -0.8760911741
H        -1.3203680813    1.5920345248    0.8938112973
H        -3.1330973516    0.3950734634    0.0022728489
$end

$rem
JOBTYPE  =  opt
METHOD  =  MP2
BASIS  =  6-311G+(d,p)
SCF_MAX_CYCLES  =  200
GEOM_OPT_MAX_CYCLES  =  300
GEOM_OPT_TOL_DISPLACEMENT = 120
GEOM_OPT_TOL_ENERGY = 10
GEOM_OPT_TOL_GRADIENT = 20
$end
--------------------------------------------------------------

   12    -522.3480488910      6.38e-09  Convergence criterion met
 Total energy in the final basis set =     -522.3480488910
        MP2         total energy =                  -523.27464801 au
    9    -522.3486756329      9.17e-09  Convergence criterion met
 Total energy in the final basis set =     -522.3486756329
        MP2         total energy =                  -523.27488841 au
    9    -522.3487641995      3.64e-09  Convergence criterion met
 Total energy in the final basis set =     -522.3487641995
        MP2         total energy =                  -523.27490329 au
    9    -522.3488047285      3.93e-09  Convergence criterion met
 Total energy in the final basis set =     -522.3488047285
        MP2         total energy =                  -523.27491052 au
    8    -522.3488077567      3.57e-09  Convergence criterion met
 Total energy in the final basis set =     -522.3488077567
        MP2         total energy =                  -523.27491101 au
 **  OPTIMIZATION CONVERGED  **
 Total job time:  350.12s(wall), 822.01s(cpu)
        *  Thank you very much for using Q-Chem.  Have a nice day.  *
 Q-Chem 5.1, Q-Chem, Inc., Pleasanton, CA (2018)
 Q-Chem 5.1.0 for Intel X86 EM64T Linux

User input:
--------------------------------------------------------------
$comment
Now calculate the frequency at molecule  the same level of theory
$end

$molecule
read
$end

$rem
JOBTYPE  =  freq
METHOD  =  MP2
BASIS  =  6-311G+(d,p)
SCF_GUESS = read
SCF_MAX_CYCLES  =  200
GEOM_OPT_MAX_CYCLES  =  300
GEOM_OPT_TOL_DISPLACEMENT = 120
GEOM_OPT_TOL_ENERGY = 10
GEOM_OPT_TOL_GRADIENT = 20
$end

--------------------------------------------------------------

    7    -522.3487760116      8.41e-09  Convergence criterion met
 Total energy in the final basis set =     -522.3487760116
        MP2         total energy =                  -523.27491030 au
    7    -522.3487819418      3.15e-09  Convergence criterion met
 Total energy in the final basis set =     -522.3487819418
        MP2         total energy =                  -523.27491078 au
    7    -522.3488370549      5.01e-09  Convergence criterion met
 Total energy in the final basis set =     -522.3488370549
        MP2         total energy =                  -523.27491083 au
    7    -522.3488097999      4.65e-09  Convergence criterion met
 Total energy in the final basis set =     -522.3488097999
        MP2         total energy =                  -523.27491110 au
    6    -522.3488097956      9.07e-09  Convergence criterion met
 Total energy in the final basis set =     -522.3488097956
        MP2         total energy =                  -523.27491110 au

                    Orbital Energies (a.u.)
 --------------------------------------------------------------

 Alpha MOs
 -- Occupied --
-68.749 -20.556 -11.254 -11.198 -11.192 -11.192  -6.096  -4.203
 -4.203  -4.203  -1.350  -0.969  -0.921  -0.917  -0.900  -0.690
 -0.627  -0.617  -0.571  -0.558  -0.553  -0.537  -0.534  -0.532
 -0.525  -0.450  -0.428  -0.422  -0.415

          Ground-State Mulliken Net Atomic Charges

     Atom                 Charge (a.u.)
  ----------------------------------------
      1 C                    -0.775410
      2 Si                    1.123487
      3 C                    -0.759306
      4 C                    -0.775368
      5 C                    -0.551022
      6 O                    -0.322190
      7 H                     0.182595
      8 H                     0.162419
      9 H                     0.163965
     10 H                     0.162117
     11 H                     0.166959
     12 H                     0.162120
     13 H                     0.163948
     14 H                     0.182595
     15 H                     0.162420
     16 H                     0.147633
     17 H                     0.147663
     18 H                     0.255374
  ----------------------------------------
  Sum of atomic charges =     0.000000

                    Cartesian Multipole Moments
 -----------------------------------------------------------------
    Charge (ESU x 10^10)
                 0.0000
    Dipole Moment (Debye)
         X      -0.1030      Y       1.4944      Z      -0.0018
       Tot       1.4980
    Quadrupole Moments (Debye-Ang)
        XX     -45.1241     XY      -4.4292     YY     -47.9245
        XZ       0.0067     YZ      -0.0013     ZZ     -49.0483

             Standard Nuclear Orientation (Angstroms)
    I     Atom           X                Y                Z
 ----------------------------------------------------------------
    1      C       0.4709764376    -1.0812740324     1.5430072511
    2      Si      0.4059442434    -0.0163882832     0.0000013674
    3      C       1.8143632128     1.2310362211    -0.0001170046
    4      C       0.4709722451    -1.0815634972    -1.5428048212
    5      C      -1.2298683665     0.9464665744    -0.0000869598
    6      O      -2.2958605208    -0.0202639813     0.0000014253
    7      H      -0.3871892471    -1.7594736072     1.5739862858
    8      H       1.3843036466    -1.6847907202     1.5739691817
    9      H       0.4451875384    -0.4660604964     2.4486502502
   10      H       1.7804983821     1.8748871226    -0.8853742197
   11      H       2.7843090473     0.7222880026    -0.0000708823
   12      H       1.7805008084     1.8750521902     0.8850202360
   13      H       0.4451850842    -0.4665198109    -2.4485632207
   14      H      -0.3871959885    -1.7597656670    -1.5736561074
   15      H       1.3842972254    -1.6850893271    -1.5736539746
   16      H      -1.2886776182     1.5961017897    -0.8858014711
   17      H      -1.2886771490     1.5962634971     0.8855089449
   18      H      -3.1275381437     0.4606632466    -0.0000363613
 ----------------------------------------------------------------

 Frequency:        61.11                 127.55                 129.91
 Force Cnst:      0.0076                 0.0292                 0.0102
 Red. Mass:       3.4572                 3.0512                 1.0289
 IR Intens:        8.205                  1.547                  0.448
 Frequency:       153.15                 158.91                 179.16
 Force Cnst:      0.0141                 0.0158                 0.0365
 Red. Mass:       1.0212                 1.0618                 1.9291
 IR Intens:        0.700                  0.023                 11.814
 Frequency:       195.81                 209.57                 219.08
 Force Cnst:      0.0539                 0.0464                 0.0669
 Red. Mass:       2.3876                 1.7941                 2.3674
 IR Intens:        0.155                 11.004                  4.926
 Frequency:       277.39                 339.18                 599.43
 Force Cnst:      0.0584                 0.3080                 0.6767
 Red. Mass:       1.2884                 4.5447                 3.1964
 IR Intens:      103.518                 22.734                  2.766
 Frequency:       688.49                 692.40                 701.32
 Force Cnst:      0.6557                 0.3309                 0.3520
 Red. Mass:       2.3477                 1.1714                 1.2148
 IR Intens:        5.750                  0.000                  1.281
 Frequency:       713.62                 724.73                 782.59
 Force Cnst:      0.6555                 0.8238                 0.5887
 Red. Mass:       2.1846                 2.6620                 1.6313
 IR Intens:        4.530                 20.794                 39.707
 Frequency:       839.32                 878.16                 897.68
 Force Cnst:      0.5622                 0.7590                 0.8488
 Red. Mass:       1.3546                 1.6704                 1.7878
 IR Intens:        2.184                 94.069                118.131
 Frequency:       898.97                1047.10                1201.33
 Force Cnst:      0.8862                 5.4360                 0.8813
 Red. Mass:       1.8611                 8.4149                 1.0365
 IR Intens:       89.558                 44.365                 21.376
 Frequency:      1251.40                1301.73                1303.57
 Force Cnst:      1.0100                 1.2667                 1.2665
 Red. Mass:       1.0946                 1.2688                 1.2650
 IR Intens:        2.511                 45.450                 40.062
 Frequency:      1313.83                1387.24                1460.64
 Force Cnst:      1.2602                 1.6178                 1.3225
 Red. Mass:       1.2391                 1.4269                 1.0521
 IR Intens:       12.748                  6.319                  0.000
 Frequency:      1465.17                1465.42                1472.77
 Force Cnst:      1.3300                 1.3308                 1.3402
 Red. Mass:       1.0516                 1.0518                 1.0487
 IR Intens:        0.005                  0.013                  5.662
 Frequency:      1475.82                1483.83                1500.92
 Force Cnst:      1.3439                 1.3569                 1.4282
 Red. Mass:       1.0473                 1.0460                 1.0760
 IR Intens:        5.278                  8.425                  7.363
 Frequency:      3025.25                3063.03                3065.28
 Force Cnst:      5.6897                 5.7256                 5.7331
 Red. Mass:       1.0552                 1.0358                 1.0356
 IR Intens:       42.327                  7.715                  8.185
 Frequency:      3065.58                3076.11                3155.06
 Force Cnst:      5.7331                 6.1612                 6.4511
 Red. Mass:       1.0354                 1.1051                 1.0999
 IR Intens:        3.609                 35.105                  1.637
 Frequency:      3155.90                3157.10                3157.20
 Force Cnst:      6.4575                 6.4599                 6.4582
 Red. Mass:       1.1004                 1.1000                 1.0997
 IR Intens:        0.002                 19.010                 27.637
 Frequency:      3165.61                3166.69                3885.59
 Force Cnst:      6.4972                 6.4994                 9.4941
 Red. Mass:       1.1004                 1.1000                 1.0673
 IR Intens:        1.828                 11.493                 35.159

 STANDARD THERMODYNAMIC QUANTITIES AT   298.15 K  AND     1.00 ATM

   This Molecule has  0 Imaginary Frequencies
   Zero point vibrational energy:       96.834 kcal/mol

   Atom    1 Element C  Has Mass   12.00000
   Atom    2 Element Si Has Mass   27.97693
   Atom    3 Element C  Has Mass   12.00000
   Atom    4 Element C  Has Mass   12.00000
   Atom    5 Element C  Has Mass   12.00000
   Atom    6 Element O  Has Mass   15.99491
   Atom    7 Element H  Has Mass    1.00783
   Atom    8 Element H  Has Mass    1.00783
   Atom    9 Element H  Has Mass    1.00783
   Atom   10 Element H  Has Mass    1.00783
   Atom   11 Element H  Has Mass    1.00783
   Atom   12 Element H  Has Mass    1.00783
   Atom   13 Element H  Has Mass    1.00783
   Atom   14 Element H  Has Mass    1.00783
   Atom   15 Element H  Has Mass    1.00783
   Atom   16 Element H  Has Mass    1.00783
   Atom   17 Element H  Has Mass    1.00783
   Atom   18 Element H  Has Mass    1.00783
   Molecular Mass:   104.065800 amu
   Principal axes and moments of inertia in amu*Bohr^2:
                             1           2           3
    Eigenvalues --      588.29545   950.33007   950.36900
          X               0.99998    -0.00562     0.00000
          Y               0.00562     0.99998    -0.00072
          Z              -0.00000     0.00072     1.00000
   Rotational Symmetry Number is   1
   The Molecule is an Asymmetric Top
   Translational Enthalpy:        0.889 kcal/mol
   Rotational Enthalpy:           0.889 kcal/mol
   Vibrational Enthalpy:        101.651 kcal/mol
   gas constant (RT):             0.592 kcal/mol
   Translational Entropy:        39.837  cal/mol.K
   Rotational Entropy:           27.765  cal/mol.K
   Vibrational Entropy:          29.970  cal/mol.K

   Total Enthalpy:              104.021 kcal/mol
   Total Entropy:                97.571  cal/mol.K

 Total job time:  5295.14s(wall), 12170.52s(cpu)
        *  Thank you very much for using Q-Chem.  Have a nice day.  *
