 Q-Chem 5.1, Q-Chem, Inc., Pleasanton, CA (2018)
 Q-Chem 5.1.0 for Intel X86 EM64T Linux

User input:
--------------------------------------------------------------
$molecule
0 1
C         1.5714537194   -1.2998473138    1.4591001370
Si        1.8259444089   -0.0504225502    0.0696556999
C         1.6893847664    1.7012916878    0.7546904107
C         3.5245165211   -0.3017570790   -0.7173828166
C         0.4888978285   -0.3103835967   -1.2618308196
C        -0.8963351907   -0.1257301369   -0.7069312660
C        -1.5035708201    1.1393370158   -0.6881253985
C        -1.5956419577   -1.2017999817   -0.1390128869
C        -2.8625995083   -1.0236049003    0.4190540209
C        -3.4537173156    0.2414838044    0.4298977419
C        -2.7703434871    1.3223052891   -0.1311845061
H         1.6497167918   -2.3282379251    1.0912678223
H         2.3247509970   -1.1708691818    2.2432546807
H         0.5854856591   -1.1832064626    1.9183236247
H         1.8371015513    2.4501997643   -0.0303742693
H         2.4448989828    1.8785758182    1.5271996884
H         0.7058287444    1.8744330339    1.2010741722
H         3.6942023471    0.4092074642   -1.5322709096
H         3.6262496939   -1.3105941724   -1.1299375832
H         4.3249794424   -0.1617377835    0.0163146132
H         0.5982947011   -1.3183427230   -1.6832638592
H         0.6656306519    0.3942269798   -2.0851482240
H        -0.9822969837    1.9868404281   -1.1312876347
H        -1.1467111767   -2.1941256381   -0.1506288578
H        -3.3881652017   -1.8746801772    0.8466879382
H        -4.4415108779    0.3816865966    0.8620184704
H        -3.2235474318    2.3112490358   -0.1351256752
$end

$rem
JOBTYPE  =  opt
METHOD  =  MP2
BASIS  =  6-311G+(d,p)
SCF_MAX_CYCLES  =  200
GEOM_OPT_MAX_CYCLES  =  300
GEOM_OPT_TOL_DISPLACEMENT = 120
GEOM_OPT_TOL_ENERGY = 10
GEOM_OPT_TOL_GRADIENT = 20
$end
--------------------------------------------------------------

   13    -677.0725601971      9.28e-09  Convergence criterion met
 Total energy in the final basis set =     -677.0725601971
        MP2         total energy =                  -678.62409955 au
   10    -677.0715917266      4.31e-09  Convergence criterion met
 Total energy in the final basis set =     -677.0715917266
        MP2         total energy =                  -678.62426596 au
    9    -677.0716376770      5.26e-09  Convergence criterion met
 Total energy in the final basis set =     -677.0716376770
        MP2         total energy =                  -678.62427128 au
    9    -677.0716172717      3.71e-09  Convergence criterion met
 Total energy in the final basis set =     -677.0716172717
        MP2         total energy =                  -678.62427290 au
    7    -677.0716044153      6.29e-09  Convergence criterion met
 Total energy in the final basis set =     -677.0716044153
        MP2         total energy =                  -678.62427302 au
 **  OPTIMIZATION CONVERGED  **
 Total job time:  2981.65s(wall), 6336.77s(cpu)
        *  Thank you very much for using Q-Chem.  Have a nice day.  *
 Q-Chem 5.1, Q-Chem, Inc., Pleasanton, CA (2018)
 Q-Chem 5.1.0 for Intel X86 EM64T Linux

User input:
--------------------------------------------------------------
$comment
Now calculate the frequency at molecule  the same level of theory
$end

$molecule
read
$end

$rem
JOBTYPE  =  freq
METHOD  =  MP2
BASIS  =  6-311G+(d,p)
SCF_GUESS = read
SCF_MAX_CYCLES  =  200
GEOM_OPT_MAX_CYCLES  =  300
GEOM_OPT_TOL_DISPLACEMENT = 120
GEOM_OPT_TOL_ENERGY = 10
GEOM_OPT_TOL_GRADIENT = 20
$end

--------------------------------------------------------------

    7    -677.0716090750      4.75e-09  Convergence criterion met
 Total energy in the final basis set =     -677.0716090750
        MP2         total energy =                  -678.62427287 au
    7    -677.0715876705      5.76e-09  Convergence criterion met
 Total energy in the final basis set =     -677.0715876705
        MP2         total energy =                  -678.62427251 au
    7    -677.0716156093      7.43e-09  Convergence criterion met
 Total energy in the final basis set =     -677.0716156093
        MP2         total energy =                  -678.62427258 au
    7    -677.0716052121      3.67e-09  Convergence criterion met
 Total energy in the final basis set =     -677.0716052121
        MP2         total energy =                  -678.62427298 au
    7    -677.0715989320      3.21e-09  Convergence criterion met
 Total energy in the final basis set =     -677.0715989320
        MP2         total energy =                  -678.62427298 au

                    Orbital Energies (a.u.)
 --------------------------------------------------------------

 Alpha MOs
 -- Occupied --
-68.753 -11.247 -11.237 -11.237 -11.231 -11.231 -11.231 -11.210
-11.199 -11.195 -11.195  -6.100  -4.207  -4.207  -4.207  -1.149
 -1.043  -1.009  -0.967  -0.922  -0.920  -0.918  -0.823  -0.793
 -0.690  -0.634  -0.632  -0.628  -0.582  -0.575  -0.569  -0.564
 -0.555  -0.542  -0.537  -0.529  -0.527  -0.505  -0.486  -0.484
 -0.433  -0.427  -0.425  -0.333  -0.311

          Ground-State Mulliken Net Atomic Charges

     Atom                 Charge (a.u.)
  ----------------------------------------
      1 C                    -0.891386
      2 Si                    1.295078
      3 C                    -0.891475
      4 C                    -0.807522
      5 C                    -1.058189
      6 C                     1.250540
      7 C                    -0.470228
      8 C                    -0.472394
      9 C                    -0.173729
     10 C                    -0.227643
     11 C                    -0.174338
     12 H                     0.177426
     13 H                     0.172888
     14 H                     0.195141
     15 H                     0.177451
     16 H                     0.172886
     17 H                     0.195186
     18 H                     0.170195
     19 H                     0.170203
     20 H                     0.169052
     21 H                     0.194592
     22 H                     0.194588
     23 H                     0.120008
     24 H                     0.120057
     25 H                     0.130727
     26 H                     0.130157
     27 H                     0.130730
  ----------------------------------------
  Sum of atomic charges =     0.000000

                    Cartesian Multipole Moments
 -----------------------------------------------------------------
    Charge (ESU x 10^10)
                 0.0000
    Dipole Moment (Debye)
         X      -0.5794      Y       0.0000      Z      -0.0106
       Tot       0.5795
    Quadrupole Moments (Debye-Ang)
        XX     -76.9804     XY      -0.0004     YY     -74.7583
        XZ      -2.5042     YZ      -0.0019     ZZ     -80.6884

             Standard Nuclear Orientation (Angstroms)
    I     Atom           X                Y                Z
 ----------------------------------------------------------------
    1      C      -1.5864157971    -1.5347155431    -1.1484385877
    2      Si     -1.8214448010     0.0000024597    -0.0901555309
    3      C      -1.5838358348     1.5321060645    -1.1516390987
    4      C      -3.5390329786     0.0022435207     0.6768789332
    5      C      -0.5214912182     0.0003589989     1.2972822177
    6      C       0.8749383423     0.0001405663     0.7370928365
    7      C       1.5341813858     1.2059998656     0.4388471842
    8      C       1.5339842081    -1.2058458406     0.4389502408
    9      C       2.8078116187    -1.2091735300    -0.1408758635
   10      C       3.4475772688    -0.0001234677    -0.4401750040
   11      C       2.8080049345     1.2090631618    -0.1409949320
   12      H      -1.7005536086    -2.4510849230    -0.5588981641
   13      H      -2.3249200776    -1.5659180168    -1.9573037193
   14      H      -0.5901538895    -1.5484114648    -1.6022064129
   15      H      -1.6963352584     2.4499061301    -0.5640134376
   16      H      -2.3223519908     1.5629011750    -1.9605107797
   17      H      -0.5875819425     1.5431370454    -1.6054926309
   18      H      -3.6930198184     0.8880982993     1.3022785500
   19      H      -3.6944595518    -0.8819332900     1.3042929369
   20      H      -4.3152145359     0.0019972253    -0.0960981417
   21      H      -0.6780937189    -0.8824407788     1.9305662736
   22      H      -0.6779862822     0.8835803092     1.9300083121
   23      H       1.0456631553     2.1506600333     0.6720102399
   24      H       1.0453172945    -2.1504047140     0.6722177875
   25      H       3.2991467826    -2.1544466825    -0.3581998882
   26      H       4.4369400189    -0.0002278807    -0.8896223443
   27      H       3.2994990604     2.1542303188    -0.3584187060
 ----------------------------------------------------------------

 Frequency:        19.23                  58.59                  69.75
 Force Cnst:      0.0007                 0.0067                 0.0110
 Red. Mass:       3.1768                 3.3057                 3.8543
 IR Intens:        0.002                  0.026                  0.045
 Frequency:       136.84                 137.88                 160.25
 Force Cnst:      0.0194                 0.0142                 0.0188
 Red. Mass:       1.7553                 1.2665                 1.2400
 IR Intens:        0.360                  0.249                  0.128
 Frequency:       176.97                 187.72                 203.23
 Force Cnst:      0.0207                 0.0398                 0.0638
 Red. Mass:       1.1192                 1.9167                 2.6213
 IR Intens:        0.386                  0.053                  0.737
 Frequency:       214.25                 219.01                 273.43
 Force Cnst:      0.0643                 0.0700                 0.1487
 Red. Mass:       2.3788                 2.4774                 3.3752
 IR Intens:        3.523                  4.123                  6.261
 Frequency:       358.21                 385.64                 449.76
 Force Cnst:      0.1469                 0.2655                 0.5976
 Red. Mass:       1.9429                 3.0296                 5.0137
 IR Intens:        0.008                  0.017                  8.838
 Frequency:       486.68                 550.93                 608.82
 Force Cnst:      0.9392                 0.8056                 0.6738
 Red. Mass:       6.7301                 4.5047                 3.0853
 IR Intens:        6.121                  4.983                  8.747
 Frequency:       622.93                 685.32                 689.08
 Force Cnst:      1.3473                 0.3629                 0.3923
 Red. Mass:       5.8931                 1.3114                 1.4022
 IR Intens:        0.273                  0.018                  1.421
 Frequency:       695.07                 710.38                 715.32
 Force Cnst:      0.4655                 0.5580                 0.8373
 Red. Mass:       1.6352                 1.8768                 2.7772
 IR Intens:        3.050                 15.201                  9.612
 Frequency:       727.36                 788.98                 816.38
 Force Cnst:      0.4629                 0.6163                 0.9140
 Red. Mass:       1.4849                 1.6803                 2.3277
 IR Intens:       56.252                 19.572                  3.151
 Frequency:       824.42                 834.04                 867.46
 Force Cnst:      0.7098                 0.5423                 0.5729
 Red. Mass:       1.7724                 1.3232                 1.2922
 IR Intens:        7.166                  0.041                  7.634
 Frequency:       877.76                 885.02                 893.27
 Force Cnst:      0.7442                 0.8466                 0.8349
 Red. Mass:       1.6394                 1.8346                 1.7758
 IR Intens:       90.211                 73.732                157.612
 Frequency:       909.54                 912.34                1008.80
 Force Cnst:      0.5366                 0.6364                 3.7088
 Red. Mass:       1.1009                 1.2977                 6.1855
 IR Intens:        0.536                  0.980                  0.427
 Frequency:      1044.11                1076.27                1141.99
 Force Cnst:      1.4008                 1.0679                 0.8568
 Red. Mass:       2.1809                 1.5647                 1.1150
 IR Intens:        5.008                 14.059                  1.177
 Frequency:      1178.76                1185.61                1204.16
 Force Cnst:      0.8713                 1.1114                 0.9599
 Red. Mass:       1.0643                 1.3419                 1.1236
 IR Intens:        0.168                 41.302                  0.832
 Frequency:      1245.77                1300.69                1301.40
 Force Cnst:      3.0252                 1.2611                 1.2632
 Red. Mass:       3.3085                 1.2651                 1.2659
 IR Intens:       31.085                 40.467                 41.678
 Frequency:      1312.32                1341.01                1450.81
 Force Cnst:      1.2521                 1.3682                 2.6006
 Red. Mass:       1.2340                 1.2913                 2.0970
 IR Intens:       15.597                  1.494                  2.748
 Frequency:      1452.19                1462.02                1464.34
 Force Cnst:      1.6256                 1.3784                 1.3770
 Red. Mass:       1.3083                 1.0945                 1.0899
 IR Intens:        4.643                  0.258                  1.998
 Frequency:      1466.74                1471.78                1476.44
 Force Cnst:      1.5673                 1.5829                 1.3802
 Red. Mass:       1.2365                 1.2403                 1.0746
 IR Intens:        1.420                  5.568                  5.774
 Frequency:      1479.00                1490.91                1520.83
 Force Cnst:      1.4348                 1.9786                 3.0603
 Red. Mass:       1.1133                 1.5108                 2.2457
 IR Intens:        7.672                  4.488                 20.139
 Frequency:      1622.62                1641.66                3059.72
 Force Cnst:      8.8625                 9.4748                 5.7727
 Red. Mass:       5.7132                 5.9670                 1.0466
 IR Intens:        0.419                 15.483                 11.069
 Frequency:      3060.07                3060.19                3061.39
 Force Cnst:      5.7158                 5.7740                 5.7221
 Red. Mass:       1.0360                 1.0465                 1.0363
 IR Intens:        3.199                 12.158                 12.881
 Frequency:      3119.07                3150.96                3151.35
 Force Cnst:      6.3163                 6.4346                 6.4354
 Red. Mass:       1.1019                 1.1000                 1.0998
 IR Intens:        6.838                  2.106                 11.508
 Frequency:      3154.73                3156.21                3158.03
 Force Cnst:      6.4492                 6.4576                 6.4652
 Red. Mass:       1.0998                 1.1002                 1.1003
 IR Intens:       18.781                 12.217                  3.388
 Frequency:      3158.93                3186.48                3188.19
 Force Cnst:      6.4665                 6.5001                 6.5172
 Red. Mass:       1.0999                 1.0865                 1.0882
 IR Intens:       17.820                  8.675                  4.694
 Frequency:      3203.14                3211.72                3226.55
 Force Cnst:      6.5879                 6.6529                 6.7453
 Red. Mass:       1.0898                 1.0947                 1.0997
 IR Intens:        2.550                 25.043                 14.506

 STANDARD THERMODYNAMIC QUANTITIES AT   298.15 K  AND     1.00 ATM

   This Molecule has  0 Imaginary Frequencies
   Zero point vibrational energy:      144.099 kcal/mol

   Atom    1 Element C  Has Mass   12.00000
   Atom    2 Element Si Has Mass   27.97693
   Atom    3 Element C  Has Mass   12.00000
   Atom    4 Element C  Has Mass   12.00000
   Atom    5 Element C  Has Mass   12.00000
   Atom    6 Element C  Has Mass   12.00000
   Atom    7 Element C  Has Mass   12.00000
   Atom    8 Element C  Has Mass   12.00000
   Atom    9 Element C  Has Mass   12.00000
   Atom   10 Element C  Has Mass   12.00000
   Atom   11 Element C  Has Mass   12.00000
   Atom   12 Element H  Has Mass    1.00783
   Atom   13 Element H  Has Mass    1.00783
   Atom   14 Element H  Has Mass    1.00783
   Atom   15 Element H  Has Mass    1.00783
   Atom   16 Element H  Has Mass    1.00783
   Atom   17 Element H  Has Mass    1.00783
   Atom   18 Element H  Has Mass    1.00783
   Atom   19 Element H  Has Mass    1.00783
   Atom   20 Element H  Has Mass    1.00783
   Atom   21 Element H  Has Mass    1.00783
   Atom   22 Element H  Has Mass    1.00783
   Atom   23 Element H  Has Mass    1.00783
   Atom   24 Element H  Has Mass    1.00783
   Atom   25 Element H  Has Mass    1.00783
   Atom   26 Element H  Has Mass    1.00783
   Atom   27 Element H  Has Mass    1.00783
   Molecular Mass:   164.102210 amu
   Principal axes and moments of inertia in amu*Bohr^2:
                             1           2           3
    Eigenvalues --      957.50523  3250.80495  3508.19301
          X               0.99999    -0.00000    -0.00516
          Y               0.00000     1.00000    -0.00000
          Z               0.00516     0.00000     0.99999
   Rotational Symmetry Number is   1
   The Molecule is an Asymmetric Top
   Translational Enthalpy:        0.889 kcal/mol
   Rotational Enthalpy:           0.889 kcal/mol
   Vibrational Enthalpy:        150.988 kcal/mol
   gas constant (RT):             0.592 kcal/mol
   Translational Entropy:        41.194  cal/mol.K
   Rotational Entropy:           30.769  cal/mol.K
   Vibrational Entropy:          45.058  cal/mol.K

   Total Enthalpy:              153.358 kcal/mol
   Total Entropy:               117.021  cal/mol.K

 Total job time:  68455.54s(wall), 143761.22s(cpu)
        *  Thank you very much for using Q-Chem.  Have a nice day.  *
