 Q-Chem 5.1, Q-Chem, Inc., Pleasanton, CA (2018)
 Q-Chem 5.1.0 for Intel X86 EM64T Linux

User input:
--------------------------------------------------------------
$molecule
0 1
C         0.4295801713   -0.0215619685   -0.0000311190
C         1.1547443622    1.1859607648   -0.0003839397
C         2.5502828813    1.1994483838   -0.0004051296
C         3.2586773753   -0.0046944844   -0.0000708851
C         2.5641322717   -1.2153672811    0.0002813043
C         1.1667544301   -1.2194854745    0.0003014760
Si       -1.4584203600    0.0036886515    0.0000202454
C        -2.1219304631   -1.7614164770    0.0001716602
C        -2.0628655764    0.9079876870    1.5424460007
C        -2.0629368790    0.9077447969   -1.5425193902
H         0.6240245354    2.1382557214   -0.0006535050
H         3.0858295185    2.1464579144   -0.0006825055
H         4.3463418204    0.0015285681   -0.0000880396
H         3.1102127964   -2.1563496754    0.0005406916
H         0.6460307859   -2.1754911018    0.0005754804
H        -3.2169397179   -1.7550402501    0.0001617821
H        -1.7965575488   -2.3170694680   -0.8846531042
H        -1.7965778045   -2.3169176842    0.8850991822
H        -3.1565920730    0.9544188375    1.5708349127
H        -1.7239540638    0.4010432316    2.4510541923
H        -1.6865698285    1.9352794051    1.5766557586
H        -3.1566667948    0.9540996559   -1.5708995213
H        -1.7240056347    0.4006979577   -2.4510629336
H        -1.6867148505    1.9350583642   -1.5768777106
$end

$rem
JOBTYPE  =  opt
METHOD  =  M06
BASIS  =  6-311G+(d,p)
SCF_MAX_CYCLES  =  200
GEOM_OPT_MAX_CYCLES  =  300
GEOM_OPT_TOL_DISPLACEMENT = 10
GEOM_OPT_TOL_ENERGY = 1
GEOM_OPT_TOL_GRADIENT = 1
$end
--------------------------------------------------------------

   15    -640.7082216847      2.63e-09  Convergence criterion met
 Total energy in the final basis set =     -640.7082216847
   11    -640.7088326950      8.33e-09  Convergence criterion met
 Total energy in the final basis set =     -640.7088326950
   10    -640.7088598143      7.26e-09  Convergence criterion met
 Total energy in the final basis set =     -640.7088598143
   10    -640.7088707465      9.02e-09  Convergence criterion met
 Total energy in the final basis set =     -640.7088707465
    8    -640.7088712641      4.94e-09  Convergence criterion met
 Total energy in the final basis set =     -640.7088712641
    8    -640.7088714462      5.09e-09  Convergence criterion met
 Total energy in the final basis set =     -640.7088714462
    6    -640.7088714535      9.70e-09  Convergence criterion met
 Total energy in the final basis set =     -640.7088714535
    5    -640.7088714549      9.55e-09  Convergence criterion met
 **  OPTIMIZATION CONVERGED  **
 Total job time:  977.72s(wall), 2695.90s(cpu)
        *  Thank you very much for using Q-Chem.  Have a nice day.  *
 Q-Chem 5.1, Q-Chem, Inc., Pleasanton, CA (2018)
 Q-Chem 5.1.0 for Intel X86 EM64T Linux

User input:
--------------------------------------------------------------
$comment
Now calculate the frequency at molecule  the same level of theory
$end

$molecule
read
$end

$rem
JOBTYPE  =  freq
METHOD  =  M06
BASIS  =  6-311G+(d,p)
SCF_GUESS = read
SCF_MAX_CYCLES  =  200
GEOM_OPT_MAX_CYCLES  =  300
GEOM_OPT_TOL_DISPLACEMENT = 10
GEOM_OPT_TOL_ENERGY = 1
GEOM_OPT_TOL_GRADIENT = 1
$end

--------------------------------------------------------------

 Total energy in the final basis set =     -640.7088737301
    8    -640.7088737317      2.86e-09  Convergence criterion met
 Total energy in the final basis set =     -640.7088737317
    7    -640.7088739911      4.50e-09  Convergence criterion met
 Total energy in the final basis set =     -640.7088739911
    7    -640.7088740036      6.83e-09  Convergence criterion met
 Total energy in the final basis set =     -640.7088740036
    8    -640.7088736410      2.32e-09  Convergence criterion met
 Total energy in the final basis set =     -640.7088736410
    8    -640.7088736628      3.18e-09  Convergence criterion met
 Total energy in the final basis set =     -640.7088736628
    7    -640.7088740929      7.42e-09  Convergence criterion met
 Total energy in the final basis set =     -640.7088740929
    7    -640.7088740889      2.85e-09  Convergence criterion met
 Total energy in the final basis set =     -640.7088740889

                    Orbital Energies (a.u.)
 --------------------------------------------------------------

 Alpha MOs
 -- Occupied --
-66.242 -10.242 -10.242 -10.241 -10.240 -10.240 -10.226 -10.212
-10.209 -10.209  -5.350  -3.670  -3.670  -3.670  -0.870  -0.762
 -0.760  -0.723  -0.693  -0.690  -0.616  -0.611  -0.537  -0.481
 -0.467  -0.454  -0.435  -0.431  -0.422  -0.417  -0.405  -0.401
 -0.393  -0.390  -0.382  -0.355  -0.317  -0.315  -0.306  -0.269
 -0.264

          Ground-State Mulliken Net Atomic Charges

     Atom                 Charge (a.u.)
  ----------------------------------------
      1 C                    -0.238185
      2 C                    -0.075190
      3 C                    -0.153285
      4 C                    -0.164412
      5 C                    -0.516317
      6 C                     0.220843
      7 Si                    0.640561
      8 C                    -0.688184
      9 C                    -0.657784
     10 C                    -0.658009
     11 H                     0.139837
     12 H                     0.155920
     13 H                     0.164058
     14 H                     0.155581
     15 H                     0.144288
     16 H                     0.178411
     17 H                     0.168352
     18 H                     0.168359
     19 H                     0.168689
     20 H                     0.177022
     21 H                     0.161841
     22 H                     0.168670
     23 H                     0.177035
     24 H                     0.161898
  ----------------------------------------
  Sum of atomic charges =    -0.000000

                    Cartesian Multipole Moments
 -----------------------------------------------------------------
    Charge (ESU x 10^10)
                 0.0000
    Dipole Moment (Debye)
         X      -0.1133      Y      -0.0572      Z      -0.0003
       Tot       0.1270
    Quadrupole Moments (Debye-Ang)
        XX     -65.6834     XY       0.1942     YY     -66.7108
        XZ       0.0002     YZ      -0.0019     ZZ     -73.8555

             Standard Nuclear Orientation (Angstroms)
    I     Atom           X                Y                Z
 ----------------------------------------------------------------
    1      C       0.4219746089    -0.0340582781     0.0000067123
    2      C       1.1263554084     1.1749462794     0.0000057968
    3      C       2.5127619499     1.2043759479     0.0000031690
    4      C       3.2291648684     0.0140019172     0.0000000416
    5      C       2.5532290930    -1.1975109731     0.0000001124
    6      C       1.1638950773    -1.2174641712     0.0000040144
    7      Si     -1.4626721266    -0.0082933961    -0.0000005901
    8      C      -2.1305326937    -1.7600897491     0.0000306555
    9      C      -2.0509417569     0.9024051526     1.5322586245
   10      C      -2.0509190552     0.9023486829    -1.5323020750
   11      H       0.5784918011     2.1171811705     0.0000075031
   12      H       3.0416185994     2.1534002270     0.0000044804
   13      H       4.3168418602     0.0327476093    -0.0000030799
   14      H       3.1130136629    -2.1284531809    -0.0000043617
   15      H       0.6482796712    -2.1760178935     0.0000023864
   16      H      -3.2275611300    -1.7470351562     0.0000079713
   17      H      -1.8076415017    -2.3178920658    -0.8852594256
   18      H      -1.8076771860    -2.3178392360     0.8853664925
   19      H      -3.1416590416     1.0195981553     1.5344168314
   20      H      -1.7655393169     0.3610014552     2.4400636111
   21      H      -1.6067882149     1.9026472837     1.5911004050
   22      H      -3.1416398150     1.0195077734    -1.5345042715
   23      H      -1.7654629815     0.3609300814    -2.4400822699
   24      H      -1.6067916353     1.9026024716    -1.5911503206
 ----------------------------------------------------------------

 Frequency:        37.87                  76.97                 125.99
 Force Cnst:      0.0028                 0.0097                 0.0267
 Red. Mass:       3.2910                 2.7743                 2.8580
 IR Intens:        0.000                  0.109                  0.057
 Frequency:       140.51                 145.74                 166.14
 Force Cnst:      0.0125                 0.0133                 0.0187
 Red. Mass:       1.0713                 1.0626                 1.1513
 IR Intens:        0.003                  0.164                  0.015
 Frequency:       177.72                 183.23                 190.35
 Force Cnst:      0.0438                 0.0371                 0.0497
 Red. Mass:       2.3548                 1.8743                 2.3277
 IR Intens:        1.191                  0.145                  2.055
 Frequency:       240.60                 289.30                 363.90
 Force Cnst:      0.1133                 0.1712                 0.3907
 Red. Mass:       3.3207                 3.4720                 5.0078
 IR Intens:        6.369                  4.828                 15.810
 Frequency:       391.18                 466.14                 620.14
 Force Cnst:      0.2536                 0.4158                 0.8323
 Red. Mass:       2.8130                 3.2475                 3.6732
 IR Intens:        0.003                  9.386                  9.143
 Frequency:       625.32                 659.07                 683.63
 Force Cnst:      1.4497                 0.2994                 0.4979
 Red. Mass:       6.2927                 1.1700                 1.8082
 IR Intens:        0.334                  0.428                  1.626
 Frequency:       683.75                 699.18                 704.34
 Force Cnst:      0.4674                 1.2826                 0.4443
 Red. Mass:       1.6968                 4.4530                 1.5200
 IR Intens:        1.668                  1.478                 36.945
 Frequency:       729.36                 749.65                 765.50
 Force Cnst:      0.5990                 0.5929                 0.6403
 Red. Mass:       1.9112                 1.7907                 1.8546
 IR Intens:       57.195                 22.357                  0.636
 Frequency:       844.55                 847.19                 852.24
 Force Cnst:      0.7440                 0.7417                 0.7466
 Red. Mass:       1.7704                 1.7540                 1.7447
 IR Intens:       78.957                 71.663                188.361
 Frequency:       859.22                 918.60                 982.63
 Force Cnst:      0.5437                 0.6760                 0.7895
 Red. Mass:       1.2499                 1.3596                 1.3878
 IR Intens:        0.164                  0.020                  0.037
 Frequency:       998.73                1008.30                1051.54
 Force Cnst:      0.7619                 3.7150                 1.7364
 Red. Mass:       1.2965                 6.2019                 2.6653
 IR Intens:        0.003                  0.026                  0.020
 Frequency:      1093.17                1132.76                1156.60
 Force Cnst:      1.1107                 2.2048                 0.8552
 Red. Mass:       1.5775                 2.9164                 1.0850
 IR Intens:        0.961                 52.997                  0.107
 Frequency:      1200.48                1254.97                1257.12
 Force Cnst:      0.9574                 1.1781                 1.1851
 Red. Mass:       1.1275                 1.2696                 1.2727
 IR Intens:        2.712                 46.922                 48.672
 Frequency:      1264.65                1311.62                1346.12
 Force Cnst:      1.1697                 2.7154                 1.9971
 Red. Mass:       1.2413                 2.6790                 1.8706
 IR Intens:       19.592                  7.491                  0.131
 Frequency:      1414.27                1421.13                1426.80
 Force Cnst:      1.2402                 1.2518                 1.2581
 Red. Mass:       1.0524                 1.0520                 1.0489
 IR Intens:        0.004                  0.023                  7.617
 Frequency:      1427.62                1428.90                1444.47
 Force Cnst:      1.2663                 1.2591                 1.3100
 Red. Mass:       1.0546                 1.0467                 1.0656
 IR Intens:        2.395                  7.702                  8.330
 Frequency:      1447.92                1509.86                1619.81
 Force Cnst:      2.6624                 2.8838                 9.0796
 Red. Mass:       2.1554                 2.1470                 5.8734
 IR Intens:        9.924                  0.529                  0.276
 Frequency:      1645.64                3011.67                3012.55
 Force Cnst:      9.3914                 5.5328                 5.5360
 Red. Mass:       5.8859                 1.0353                 1.0353
 IR Intens:        1.024                  5.641                  7.299
 Frequency:      3013.01                3100.72                3101.68
 Force Cnst:      5.5417                 6.2342                 6.2389
 Red. Mass:       1.0361                 1.1005                 1.1007
 IR Intens:        7.075                 10.994                  2.034
 Frequency:      3101.98                3102.03                3104.50
 Force Cnst:      6.2384                 6.2372                 6.2488
 Red. Mass:       1.1004                 1.1001                 1.1004
 IR Intens:       25.019                  7.858                  9.955
 Frequency:      3104.65                3117.29                3133.17
 Force Cnst:      6.2498                 6.2272                 6.2813
 Red. Mass:       1.1005                 1.0877                 1.0860
 IR Intens:        5.779                 12.546                  5.920
 Frequency:      3145.35                3157.24                3167.30
 Force Cnst:      6.3435                 6.4233                 6.4952
 Red. Mass:       1.0883                 1.0937                 1.0989
 IR Intens:        1.563                 32.241                 21.962

 STANDARD THERMODYNAMIC QUANTITIES AT   298.15 K  AND     1.00 ATM

   This Molecule has  0 Imaginary Frequencies
   Zero point vibrational energy:      125.024 kcal/mol

   Atom    1 Element C  Has Mass   12.00000
   Atom    2 Element C  Has Mass   12.00000
   Atom    3 Element C  Has Mass   12.00000
   Atom    4 Element C  Has Mass   12.00000
   Atom    5 Element C  Has Mass   12.00000
   Atom    6 Element C  Has Mass   12.00000
   Atom    7 Element Si Has Mass   27.97693
   Atom    8 Element C  Has Mass   12.00000
   Atom    9 Element C  Has Mass   12.00000
   Atom   10 Element C  Has Mass   12.00000
   Atom   11 Element H  Has Mass    1.00783
   Atom   12 Element H  Has Mass    1.00783
   Atom   13 Element H  Has Mass    1.00783
   Atom   14 Element H  Has Mass    1.00783
   Atom   15 Element H  Has Mass    1.00783
   Atom   16 Element H  Has Mass    1.00783
   Atom   17 Element H  Has Mass    1.00783
   Atom   18 Element H  Has Mass    1.00783
   Atom   19 Element H  Has Mass    1.00783
   Atom   20 Element H  Has Mass    1.00783
   Atom   21 Element H  Has Mass    1.00783
   Atom   22 Element H  Has Mass    1.00783
   Atom   23 Element H  Has Mass    1.00783
   Atom   24 Element H  Has Mass    1.00783
   Molecular Mass:   150.086550 amu
   Principal axes and moments of inertia in amu*Bohr^2:
                             1           2           3
    Eigenvalues --      884.09537  2479.94129  2794.24332
          X               1.00000     0.00021    -0.00000
          Y              -0.00021     1.00000     0.00000
          Z               0.00000    -0.00000     1.00000
   Rotational Symmetry Number is   1
   The Molecule is an Asymmetric Top
   Translational Enthalpy:        0.889 kcal/mol
   Rotational Enthalpy:           0.889 kcal/mol
   Vibrational Enthalpy:        131.103 kcal/mol
   gas constant (RT):             0.592 kcal/mol
   Translational Entropy:        40.928  cal/mol.K
   Rotational Entropy:           30.194  cal/mol.K
   Vibrational Entropy:          38.207  cal/mol.K

   Total Enthalpy:              133.472 kcal/mol
   Total Entropy:               109.329  cal/mol.K

 Total job time:  12896.86s(wall), 35555.07s(cpu)
        *  Thank you very much for using Q-Chem.  Have a nice day.  *
