 Q-Chem 5.1, Q-Chem, Inc., Pleasanton, CA (2018)
 Q-Chem 5.1.0 for Intel X86 EM64T Linux

User input:
--------------------------------------------------------------
$molecule
0 1
C        -1.1253244235   -1.1098114694    0.4445669093
C        -0.4183693923   -0.0077880305   -0.0734609347
C        -1.1674044083    1.0853018649   -0.5468030015
C        -2.5635343439    1.0798304259   -0.5104324268
C        -3.2431893159   -0.0251416597    0.0064300636
C        -2.5210952140   -1.1225449401    0.4810165374
Si        1.4630090524    0.0016675069   -0.0571922862
C         2.1519295759    0.5677488236    1.5991587513
N         1.9327695744   -1.6712566801   -0.2410538781
C         2.0811557827    1.1725475435   -1.4026342324
H        -0.5703641943   -1.9723355450    0.8086096375
H        -0.6582227097    1.9536688408   -0.9622521022
H        -3.1210792207    1.9358433232   -0.8846986243
H        -4.3305989830   -0.0327957766    0.0346635803
H        -3.0465469904   -1.9866846700    0.8822945101
H         3.2464045196    0.5225424195    1.6144706151
H         1.8622773003    1.6014455372    1.8114324527
H         1.7763747528   -0.0623416605    2.4100232833
H         2.8995113015   -1.9240370090   -0.0630803648
H         1.5825543351   -2.1827193703   -1.0447722435
H         3.1746722796    1.1502642240   -1.4587769470
H         1.6906170358    0.8971656634   -2.3871101332
H         1.7884556359    2.2094416640   -1.2062492257
$end

$rem
JOBTYPE  =  opt
METHOD  =  M06
BASIS  =  6-311G+(d,p)
SCF_MAX_CYCLES  =  200
GEOM_OPT_MAX_CYCLES  =  300
GEOM_OPT_TOL_DISPLACEMENT = 10
GEOM_OPT_TOL_ENERGY = 1
GEOM_OPT_TOL_GRADIENT = 1
$end
--------------------------------------------------------------

   14    -656.7797953713      9.18e-09  Convergence criterion met
 Total energy in the final basis set =     -656.7797953713
   12    -656.7805481690      4.17e-09  Convergence criterion met
 Total energy in the final basis set =     -656.7805481690
   12    -656.7807176726      2.02e-09  Convergence criterion met
 Total energy in the final basis set =     -656.7807176726
   12    -656.7809108157      3.38e-09  Convergence criterion met
 Total energy in the final basis set =     -656.7809108157
   12    -656.7809744048      3.10e-09  Convergence criterion met
 Total energy in the final basis set =     -656.7809744048
   10    -656.7810036529      9.40e-09  Convergence criterion met
 Total energy in the final basis set =     -656.7810036529
    9    -656.7810124363      8.52e-09  Convergence criterion met
 Total energy in the final basis set =     -656.7810124363
    9    -656.7810136391      4.27e-09  Convergence criterion met
 **  OPTIMIZATION CONVERGED  **
 Total job time:  1431.08s(wall), 4136.88s(cpu)
        *  Thank you very much for using Q-Chem.  Have a nice day.  *
 Q-Chem 5.1, Q-Chem, Inc., Pleasanton, CA (2018)
 Q-Chem 5.1.0 for Intel X86 EM64T Linux

User input:
--------------------------------------------------------------
$comment
Now calculate the frequency at molecule  the same level of theory
$end

$molecule
read
$end

$rem
JOBTYPE  =  freq
METHOD  =  M06
BASIS  =  6-311G+(d,p)
SCF_GUESS = read
SCF_MAX_CYCLES  =  200
GEOM_OPT_MAX_CYCLES  =  300
GEOM_OPT_TOL_DISPLACEMENT = 10
GEOM_OPT_TOL_ENERGY = 1
GEOM_OPT_TOL_GRADIENT = 1
$end

--------------------------------------------------------------

 Total energy in the final basis set =     -656.7809252419
    8    -656.7809247727      3.93e-09  Convergence criterion met
 Total energy in the final basis set =     -656.7809247727
    7    -656.7809253172      7.99e-09  Convergence criterion met
 Total energy in the final basis set =     -656.7809253172
    7    -656.7809253692      5.44e-09  Convergence criterion met
 Total energy in the final basis set =     -656.7809253692
    7    -656.7809254876      4.38e-09  Convergence criterion met
 Total energy in the final basis set =     -656.7809254876
    8    -656.7809248830      3.01e-09  Convergence criterion met
 Total energy in the final basis set =     -656.7809248830
    8    -656.7809249375      3.19e-09  Convergence criterion met
 Total energy in the final basis set =     -656.7809249375
    8    -656.7809251955      3.71e-09  Convergence criterion met
 Total energy in the final basis set =     -656.7809251955

                    Orbital Energies (a.u.)
 --------------------------------------------------------------

 Alpha MOs
 -- Occupied --
-66.251 -14.351 -10.241 -10.240 -10.238 -10.238 -10.238 -10.224
-10.207 -10.207  -5.358  -3.678  -3.677  -3.677  -0.869  -0.854
 -0.758  -0.757  -0.711  -0.689  -0.614  -0.610  -0.538  -0.500
 -0.493  -0.465  -0.456  -0.433  -0.426  -0.420  -0.402  -0.401
 -0.394  -0.382  -0.369  -0.352  -0.324  -0.309  -0.270  -0.267
 -0.259

          Ground-State Mulliken Net Atomic Charges

     Atom                 Charge (a.u.)
  ----------------------------------------
      1 C                     0.151565
      2 C                    -0.535607
      3 C                     0.101384
      4 C                    -0.484618
      5 C                    -0.158773
      6 C                    -0.186834
      7 Si                    0.985436
      8 C                    -0.707363
      9 N                    -0.827641
     10 C                    -0.694209
     11 H                     0.165171
     12 H                     0.144179
     13 H                     0.155135
     14 H                     0.163442
     15 H                     0.156472
     16 H                     0.166236
     17 H                     0.171647
     18 H                     0.177287
     19 H                     0.281053
     20 H                     0.271155
     21 H                     0.176015
     22 H                     0.168038
     23 H                     0.160829
  ----------------------------------------
  Sum of atomic charges =    -0.000000

                    Cartesian Multipole Moments
 -----------------------------------------------------------------
    Charge (ESU x 10^10)
                -0.0000
    Dipole Moment (Debye)
         X       0.4477      Y      -0.0925      Z      -0.4996
       Tot       0.6773
    Quadrupole Moments (Debye-Ang)
        XX     -63.0078     XY      -1.6311     YY     -66.6045
        XZ      -1.1052     YZ       1.6140     ZZ     -70.5116

             Standard Nuclear Orientation (Angstroms)
    I     Atom           X                Y                Z
 ----------------------------------------------------------------
    1      C      -1.1181326327    -1.1786651058    -0.0323891652
    2      C      -0.4146188929     0.0306720682    -0.0264843659
    3      C      -1.1526099756     1.2158531469     0.0166271277
    4      C      -2.5412243399     1.1978596362     0.0544254603
    5      C      -3.2178936389    -0.0134718102     0.0497611824
    6      C      -2.5043392967    -1.2047421053     0.0064799605
    7      Si      1.4656442615     0.0009835341    -0.0396267441
    8      C       2.1452559492    -0.6365933133     1.5841215616
    9      N       1.9146177992    -1.1560882349    -1.2434735676
   10      C       2.1077344244     1.7397242382    -0.3294848683
   11      H      -0.5622318671    -2.1137988346    -0.0757820235
   12      H      -0.6348917812     2.1732063082     0.0157336145
   13      H      -3.0999565378     2.1288718676     0.0836803129
   14      H      -4.3053265183    -0.0308121391     0.0782760979
   15      H      -3.0354619765    -2.1524379624     0.0013779886
   16      H       3.2270532919    -0.8110220065     1.5224530714
   17      H       1.9688605862     0.0760739879     2.3956037322
   18      H       1.6665945669    -1.5828669554     1.8559068873
   19      H       2.8053051082    -1.6294738201    -1.2464650617
   20      H       1.4670083662    -1.1954372931    -2.1469670588
   21      H       3.1999990086     1.7276592249    -0.4290385283
   22      H       1.6955369840     2.1833493649    -1.2422174979
   23      H       1.8611369318     2.4017158953     0.5081864976
 ----------------------------------------------------------------

 Frequency:        31.39                  79.13                 119.97
 Force Cnst:      0.0020                 0.0113                 0.0250
 Red. Mass:       3.4199                 3.0505                 2.9431
 IR Intens:        0.120                  0.729                  1.348
 Frequency:       143.70                 162.27                 177.05
 Force Cnst:      0.0133                 0.0262                 0.0284
 Red. Mass:       1.0902                 1.6903                 1.5403
 IR Intens:        1.125                  2.584                  1.212
 Frequency:       188.41                 208.72                 232.23
 Force Cnst:      0.0276                 0.0800                 0.0608
 Red. Mass:       1.3191                 3.1165                 1.9124
 IR Intens:        1.625                  3.091                 25.390
 Frequency:       260.27                 287.96                 319.22
 Force Cnst:      0.0509                 0.0952                 0.1932
 Red. Mass:       1.2755                 1.9481                 3.2180
 IR Intens:      137.590                 13.133                  2.986
 Frequency:       376.68                 394.13                 466.84
 Force Cnst:      0.3689                 0.2564                 0.4183
 Red. Mass:       4.4131                 2.8019                 3.2573
 IR Intens:       27.427                  0.942                 10.457
 Frequency:       624.67                 638.69                 672.51
 Force Cnst:      1.4466                 0.8682                 0.4277
 Red. Mass:       6.2920                 3.6125                 1.6049
 IR Intens:        0.313                 13.274                  2.205
 Frequency:       700.72                 703.70                 709.40
 Force Cnst:      0.8079                 0.4722                 0.4331
 Red. Mass:       2.7927                 1.6184                 1.4608
 IR Intens:        1.827                 37.102                 11.706
 Frequency:       730.69                 745.18                 782.57
 Force Cnst:      0.4952                 0.6349                 0.7459
 Red. Mass:       1.5741                 1.9406                 2.0671
 IR Intens:       20.216                 31.127                 38.346
 Frequency:       811.79                 861.13                 867.88
 Force Cnst:      0.6669                 0.5480                 0.7871
 Red. Mass:       1.7175                 1.2543                 1.7736
 IR Intens:       50.948                  1.610                175.710
 Frequency:       885.13                 923.41                 986.08
 Force Cnst:      1.5082                 0.6820                 0.7938
 Red. Mass:       3.2674                 1.3575                 1.3857
 IR Intens:      174.178                  0.109                  0.156
 Frequency:       999.32                1008.58                1051.11
 Force Cnst:      0.7617                 3.7164                 1.6859
 Red. Mass:       1.2946                 6.2009                 2.5898
 IR Intens:        0.022                  0.320                  0.060
 Frequency:      1091.10                1133.75                1155.77
 Force Cnst:      1.0962                 2.2678                 0.8526
 Red. Mass:       1.5629                 2.9945                 1.0834
 IR Intens:        0.615                 66.685                  0.174
 Frequency:      1196.19                1257.96                1263.01
 Force Cnst:      0.9471                 1.1946                 1.1826
 Red. Mass:       1.1234                 1.2813                 1.2582
 IR Intens:        3.232                 53.045                 34.372
 Frequency:      1312.06                1344.12                1420.29
 Force Cnst:      2.3507                 2.2636                 1.2497
 Red. Mass:       2.3176                 2.1265                 1.0515
 IR Intens:        5.167                  0.168                  3.013
 Frequency:      1429.48                1429.81                1442.81
 Force Cnst:      1.2657                 1.2649                 1.3008
 Red. Mass:       1.0513                 1.0501                 1.0606
 IR Intens:        3.167                  5.199                  5.760
 Frequency:      1448.13                1508.04                1552.15
 Force Cnst:      2.7110                 2.9116                 1.5878
 Red. Mass:       2.1941                 2.1730                 1.1186
 IR Intens:       10.746                  0.321                 78.910
 Frequency:      1620.10                1645.56                3009.48
 Force Cnst:      9.1917                 9.4338                 5.5291
 Red. Mass:       5.9438                 5.9130                 1.0361
 IR Intens:        0.656                  2.156                  5.623
 Frequency:      3013.52                3096.26                3100.50
 Force Cnst:      5.5429                 6.2119                 6.2304
 Red. Mass:       1.0359                 1.0998                 1.1000
 IR Intens:        7.280                  9.535                 13.335
 Frequency:      3102.14                3110.76                3130.37
 Force Cnst:      6.2406                 6.2741                 6.2736
 Red. Mass:       1.1007                 1.1004                 1.0866
 IR Intens:       13.298                  8.400                  3.064
 Frequency:      3133.26                3145.41                3158.02
 Force Cnst:      6.2849                 6.3473                 6.4280
 Red. Mass:       1.0866                 1.0889                 1.0939
 IR Intens:        6.655                  2.314                 32.694
 Frequency:      3167.39                3603.60                3708.37
 Force Cnst:      6.4958                 8.0313                 8.8847
 Red. Mass:       1.0990                 1.0497                 1.0965
 IR Intens:       22.608                 24.529                 23.818

 STANDARD THERMODYNAMIC QUANTITIES AT   298.15 K  AND     1.00 ATM

   This Molecule has  0 Imaginary Frequencies
   Zero point vibrational energy:      118.483 kcal/mol

   Atom    1 Element C  Has Mass   12.00000
   Atom    2 Element C  Has Mass   12.00000
   Atom    3 Element C  Has Mass   12.00000
   Atom    4 Element C  Has Mass   12.00000
   Atom    5 Element C  Has Mass   12.00000
   Atom    6 Element C  Has Mass   12.00000
   Atom    7 Element Si Has Mass   27.97693
   Atom    8 Element C  Has Mass   12.00000
   Atom    9 Element N  Has Mass   14.00307
   Atom   10 Element C  Has Mass   12.00000
   Atom   11 Element H  Has Mass    1.00783
   Atom   12 Element H  Has Mass    1.00783
   Atom   13 Element H  Has Mass    1.00783
   Atom   14 Element H  Has Mass    1.00783
   Atom   15 Element H  Has Mass    1.00783
   Atom   16 Element H  Has Mass    1.00783
   Atom   17 Element H  Has Mass    1.00783
   Atom   18 Element H  Has Mass    1.00783
   Atom   19 Element H  Has Mass    1.00783
   Atom   20 Element H  Has Mass    1.00783
   Atom   21 Element H  Has Mass    1.00783
   Atom   22 Element H  Has Mass    1.00783
   Atom   23 Element H  Has Mass    1.00783
   Molecular Mass:   151.081790 amu
   Principal axes and moments of inertia in amu*Bohr^2:
                             1           2           3
    Eigenvalues --      861.95204  2446.62282  2787.33713
          X               0.99997     0.00501     0.00553
          Y              -0.00494     0.99990    -0.01290
          Z              -0.00560     0.01287     0.99990
   Rotational Symmetry Number is   1
   The Molecule is an Asymmetric Top
   Translational Enthalpy:        0.889 kcal/mol
   Rotational Enthalpy:           0.889 kcal/mol
   Vibrational Enthalpy:        124.575 kcal/mol
   gas constant (RT):             0.592 kcal/mol
   Translational Entropy:        40.948  cal/mol.K
   Rotational Entropy:           30.153  cal/mol.K
   Vibrational Entropy:          38.172  cal/mol.K

   Total Enthalpy:              126.945 kcal/mol
   Total Entropy:               109.273  cal/mol.K

 Total job time:  11741.57s(wall), 32690.76s(cpu)
        *  Thank you very much for using Q-Chem.  Have a nice day.  *
