 Q-Chem 5.1, Q-Chem, Inc., Pleasanton, CA (2018)
 Q-Chem 5.1.0 for Intel X86 EM64T Linux

User input:
--------------------------------------------------------------
$molecule
0 1
C         0.4276781526    0.0284758528    0.0000000000
C         1.1585995944    1.2298772803    0.0000000000
C         2.5548798562    1.2243241903    0.0000000000
C         3.2504886265    0.0142206923    0.0000000000
C         2.5446834011   -1.1908250113    0.0000000000
C         1.1495819035   -1.1791467552    0.0000000000
Si       -1.4505087159    0.0313462692    0.0000000000
C        -2.1316162092   -0.8288160864    1.5370658676
C        -2.1316162092   -0.8288160864   -1.5370658676
O        -1.8560708563    1.6613918649    0.0000000000
H         0.6250117761    2.1764340482    0.0000000000
H         3.1003482777    2.1649515997    0.0000000000
H         4.3377065671    0.0090260518    0.0000000000
H         3.0809073662   -2.1366714738    0.0000000000
H         0.6194964368   -2.1306513106    0.0000000000
H        -3.2284607151   -0.7956477161    1.5669637544
H        -1.8392945720   -1.8860507083    1.5605592033
H        -1.7556070053   -0.3584673230    2.4524395218
H        -3.2284607151   -0.7956477161   -1.5669637544
H        -1.7556070053   -0.3584673230   -2.4524395218
H        -1.8392945720   -1.8860507083   -1.5605592033
H        -2.8017884817    1.8603257412    0.0000000000
$end

$rem
JOBTYPE  =  opt
METHOD  =  B3LYP
BASIS  =  6-311G+(d,p)
SCF_MAX_CYCLES  =  200
GEOM_OPT_MAX_CYCLES  =  300
GEOM_OPT_TOL_DISPLACEMENT = 120
GEOM_OPT_TOL_ENERGY = 10
GEOM_OPT_TOL_GRADIENT = 20
$end
--------------------------------------------------------------

   14    -677.0107552581      3.95e-09  Convergence criterion met
 Total energy in the final basis set =     -677.0107552581
   10    -677.0110039041      8.46e-09  Convergence criterion met
 Total energy in the final basis set =     -677.0110039041
   10    -677.0110480285      4.73e-09  Convergence criterion met
 Total energy in the final basis set =     -677.0110480285
    9    -677.0110587215      8.13e-09  Convergence criterion met
 Total energy in the final basis set =     -677.0110587215
    8    -677.0110598144      8.33e-09  Convergence criterion met
 Total energy in the final basis set =     -677.0110598144
    8    -677.0110599274      5.92e-09  Convergence criterion met
 Total energy in the final basis set =     -677.0110599274
    7    -677.0110599394      7.96e-09  Convergence criterion met
 Total energy in the final basis set =     -677.0110599394
 Final energy is   -677.011059939357
 **  OPTIMIZATION CONVERGED  **
 Total job time:  237.13s(wall), 947.49s(cpu)
        *  Thank you very much for using Q-Chem.  Have a nice day.  *
 Q-Chem 5.1, Q-Chem, Inc., Pleasanton, CA (2018)
 Q-Chem 5.1.0 for Intel X86 EM64T Linux

User input:
--------------------------------------------------------------
$comment
Now calculate the frequency at molecule  the same level of theory
$end

$molecule
read
$end

$rem
JOBTYPE  =  freq
METHOD  =  B3LYP
BASIS  =  6-311G+(d,p)
SCF_GUESS = read
SCF_MAX_CYCLES  =  200
GEOM_OPT_MAX_CYCLES  =  300
GEOM_OPT_TOL_DISPLACEMENT = 120
GEOM_OPT_TOL_ENERGY = 10
GEOM_OPT_TOL_GRADIENT = 20
$end

--------------------------------------------------------------

             Standard Nuclear Orientation (Angstroms)
    I     Atom           X                Y                Z
 ----------------------------------------------------------------
    1      C       0.4178498075     0.0103451824    -0.0000000000
    2      C       1.1693766717     1.1962226913     0.0000000000
    3      C       2.5634979465     1.1628049013     0.0000000000
    4      C       3.2349547534    -0.0585038737    -0.0000000000
    5      C       2.5069529053    -1.2478292521    -0.0000000000
    6      C       1.1140095882    -1.2095403521    -0.0000000000
    7      Si     -1.4615701615     0.0494156528     0.0000000000
    8      C      -2.1675548173    -0.7800648966     1.5359356047
    9      C      -2.1675548173    -0.7800648966    -1.5359356047
   10      O      -1.8268907636     1.6886417236     0.0000000000
   11      H       0.6544545838     2.1505969204     0.0000000000
   12      H       3.1258232863     2.0905211888     0.0000000000
   13      H       4.3192649988    -0.0846206164    -0.0000000000
   14      H       3.0234160902    -2.2017076309    -0.0000000000
   15      H       0.5671738039    -2.1485644010    -0.0000000000
   16      H      -3.2604095048    -0.7092736970     1.5577364760
   17      H      -1.9095622058    -1.8435004369     1.5652779437
   18      H      -1.7796109293    -0.3164525818     2.4469163055
   19      H      -3.2604095048    -0.7092736970    -1.5577364760
   20      H      -1.7796109293    -0.3164525818    -2.4469163055
   21      H      -1.9095622058    -1.8435004369    -1.5652779437
   22      H      -2.7430513421     1.9710580188     0.0000000000
 ----------------------------------------------------------------

    8    -677.0110605020      7.04e-09  Convergence criterion met
 Total energy in the final basis set =     -677.0110605020

             Orbital Energies (a.u.) and Symmetries
 --------------------------------------------------------------

 Alpha MOs, Restricted
 -- Occupied --
-66.108 -19.116 -10.178 -10.176 -10.175 -10.174 -10.173 -10.163
  1 A'    2 A'    3 A'    4 A'    5 A'    6 A'    7 A'    8 A'
-10.150 -10.150  -5.278  -3.639  -3.636  -3.635  -0.998  -0.854
  9 A'    1 A"   10 A'   11 A'   12 A'    2 A"   13 A'   14 A'
 -0.748  -0.746  -0.708  -0.685  -0.605  -0.602  -0.549  -0.512
 15 A'   16 A'   17 A'    3 A"   18 A'   19 A'   20 A'   21 A'
 -0.460  -0.450  -0.432  -0.423  -0.420  -0.410  -0.404  -0.400
 22 A'   23 A'   24 A'   25 A'   26 A'   27 A'    4 A"    5 A"
 -0.388  -0.370  -0.348  -0.348  -0.339  -0.300  -0.293  -0.256
 28 A'    6 A"   29 A'    7 A"   30 A'   31 A'    8 A"    9 A"
 -0.254
 10 A"

 Beta MOs, Restricted
 -- Occupied --
-66.108 -19.116 -10.178 -10.176 -10.175 -10.174 -10.173 -10.163
  1 A'    2 A'    3 A'    4 A'    5 A'    6 A'    7 A'    8 A'
-10.150 -10.150  -5.278  -3.639  -3.636  -3.635  -0.998  -0.854
  9 A'    1 A"   10 A'   11 A'   12 A'    2 A"   13 A'   14 A'
 -0.748  -0.746  -0.708  -0.685  -0.605  -0.602  -0.549  -0.512
 15 A'   16 A'   17 A'    3 A"   18 A'   19 A'   20 A'   21 A'
 -0.460  -0.450  -0.432  -0.423  -0.420  -0.410  -0.404  -0.400
 22 A'   23 A'   24 A'   25 A'   26 A'   27 A'    4 A"    5 A"
 -0.388  -0.370  -0.348  -0.348  -0.339  -0.300  -0.293  -0.256
 28 A'    6 A"   29 A'    7 A"   30 A'   31 A'    8 A"    9 A"
 -0.254
 10 A"

          Ground-State Mulliken Net Atomic Charges

     Atom                 Charge (a.u.)
  ----------------------------------------
      1 C                    -0.115564
      2 C                    -0.307796
      3 C                     0.080201
      4 C                    -0.207689
      5 C                    -0.049775
      6 C                    -0.415029
      7 Si                    1.294431
      8 C                    -0.817602
      9 C                    -0.817602
     10 O                    -0.540414
     11 H                     0.155567
     12 H                     0.123658
     13 H                     0.124999
     14 H                     0.121956
     15 H                     0.115425
     16 H                     0.160731
     17 H                     0.161543
     18 H                     0.176945
     19 H                     0.160731
     20 H                     0.176945
     21 H                     0.161543
     22 H                     0.256797
  ----------------------------------------
  Sum of atomic charges =    -0.000000

                    Cartesian Multipole Moments
 -----------------------------------------------------------------
    Charge (ESU x 10^10)
                -0.0000
    Dipole Moment (Debye)
         X      -1.1992      Y      -0.7718      Z      -0.0000
       Tot       1.4261
    Quadrupole Moments (Debye-Ang)
        XX     -58.1853     XY      -1.5749     YY     -66.2941
        XZ       0.0000     YZ       0.0000     ZZ     -72.7434

 Frequency:        11.22                  85.34                 127.48
 Force Cnst:      0.0003                 0.0137                 0.0323
 Red. Mass:       3.6342                 3.1976                 3.3698
 IR Intens:        1.649                  0.000                  0.609
 Frequency:       151.17                 172.82                 172.88
 Force Cnst:      0.0144                 0.0185                 0.0210
 Red. Mass:       1.0658                 1.0491                 1.1928
 IR Intens:       12.959                  0.064                 61.148
 Frequency:       191.42                 221.17                 224.73
 Force Cnst:      0.0527                 0.0679                 0.0981
 Red. Mass:       2.4416                 2.3565                 3.2982
 IR Intens:        0.856                 33.042                 11.292
 Frequency:       289.25                 311.54                 385.87
 Force Cnst:      0.2030                 0.2716                 0.3905
 Red. Mass:       4.1182                 4.7500                 4.4516
 IR Intens:       30.142                  0.777                 35.150
 Frequency:       397.25                 477.94                 629.94
 Force Cnst:      0.2597                 0.4515                 0.9835
 Red. Mass:       2.7934                 3.3546                 4.2067
 IR Intens:        0.563                 11.265                 24.553
 Frequency:       634.74                 683.50                 707.63
 Force Cnst:      1.5183                 0.5352                 0.5024
 Red. Mass:       6.3960                 1.9445                 1.7030
 IR Intens:        0.833                  9.666                 39.782
 Frequency:       708.74                 736.70                 756.63
 Force Cnst:      1.3160                 0.4701                 0.3903
 Red. Mass:       4.4468                 1.4703                 1.1571
 IR Intens:       16.562                 40.448                122.893
 Frequency:       762.21                 788.41                 800.21
 Force Cnst:      0.5226                 0.9403                 0.8255
 Red. Mass:       1.5267                 2.5675                 2.1881
 IR Intens:       31.942                 64.545                 79.163
 Frequency:       862.86                 876.43                 901.44
 Force Cnst:      0.5505                 0.7601                 1.1406
 Red. Mass:       1.2549                 1.6795                 2.3823
 IR Intens:        0.129                165.198                113.154
 Frequency:       930.36                 988.62                1008.21
 Force Cnst:      0.6922                 0.7911                 0.7772
 Red. Mass:       1.3573                 1.3738                 1.2977
 IR Intens:        0.004                  0.026                  0.027
 Frequency:      1013.87                1049.29                1097.33
 Force Cnst:      3.7961                 1.7302                 1.2039
 Red. Mass:       6.2679                 2.6671                 1.6970
 IR Intens:        0.398                  0.238                  0.781
 Frequency:      1131.10                1184.02                1210.38
 Force Cnst:      2.4069                 0.9258                 0.9920
 Red. Mass:       3.1931                 1.1208                 1.1493
 IR Intens:       64.049                  0.136                  2.325
 Frequency:      1293.82                1298.87                1303.11
 Force Cnst:      1.2386                 1.3670                 3.0695
 Red. Mass:       1.2558                 1.3753                 3.0680
 IR Intens:       42.330                 16.298                 12.593
 Frequency:      1355.22                1454.99                1456.50
 Force Cnst:      1.6564                 1.3143                 1.3141
 Red. Mass:       1.5308                 1.0538                 1.0514
 IR Intens:        2.489                  0.680                  0.948
 Frequency:      1458.58                1464.25                1468.94
 Force Cnst:      2.4995                 1.3264                 1.3433
 Red. Mass:       1.9941                 1.0500                 1.0566
 IR Intens:       14.679                  4.797                  5.480
 Frequency:      1517.51                1608.10                1631.26
 Force Cnst:      2.7459                 7.4257                 8.2692
 Red. Mass:       2.0238                 4.8737                 5.2743
 IR Intens:        1.352                  0.025                  1.523
 Frequency:      3019.02                3021.15                3083.16
 Force Cnst:      5.5629                 5.5697                 6.1551
 Red. Mass:       1.0359                 1.0357                 1.0990
 IR Intens:        4.619                 12.365                  0.068
 Frequency:      3086.57                3101.72                3102.15
 Force Cnst:      6.1655                 6.2357                 6.2382
 Red. Mass:       1.0984                 1.1001                 1.1002
 IR Intens:       34.821                  7.826                 12.363
 Frequency:      3141.73                3159.78                3170.35
 Force Cnst:      6.3229                 6.3883                 6.4575
 Red. Mass:       1.0872                 1.0860                 1.0904
 IR Intens:       11.113                  0.171                 17.265
 Frequency:      3181.01                3187.95                3915.19
 Force Cnst:      6.5180                 6.5704                 9.6365
 Red. Mass:       1.0933                 1.0973                 1.0670
 IR Intens:       19.076                 19.306                 76.945

 STANDARD THERMODYNAMIC QUANTITIES AT   298.15 K  AND     1.00 ATM

   This Molecule has  0 Imaginary Frequencies
   Zero point vibrational energy:      111.740 kcal/mol

   Atom    1 Element C  Has Mass   12.00000
   Atom    2 Element C  Has Mass   12.00000
   Atom    3 Element C  Has Mass   12.00000
   Atom    4 Element C  Has Mass   12.00000
   Atom    5 Element C  Has Mass   12.00000
   Atom    6 Element C  Has Mass   12.00000
   Atom    7 Element Si Has Mass   27.97693
   Atom    8 Element C  Has Mass   12.00000
   Atom    9 Element C  Has Mass   12.00000
   Atom   10 Element O  Has Mass   15.99491
   Atom   11 Element H  Has Mass    1.00783
   Atom   12 Element H  Has Mass    1.00783
   Atom   13 Element H  Has Mass    1.00783
   Atom   14 Element H  Has Mass    1.00783
   Atom   15 Element H  Has Mass    1.00783
   Atom   16 Element H  Has Mass    1.00783
   Atom   17 Element H  Has Mass    1.00783
   Atom   18 Element H  Has Mass    1.00783
   Atom   19 Element H  Has Mass    1.00783
   Atom   20 Element H  Has Mass    1.00783
   Atom   21 Element H  Has Mass    1.00783
   Atom   22 Element H  Has Mass    1.00783
   Molecular Mass:   152.065800 amu
   Principal axes and moments of inertia in amu*Bohr^2:
                             1           2           3
    Eigenvalues --      852.98117  2496.12438  2788.33008
          X               0.99988     0.01552    -0.00000
          Y              -0.01552     0.99988    -0.00000
          Z              -0.00000     0.00000     1.00000
   Rotational Symmetry Number is   1
   The Molecule is an Asymmetric Top
   Translational Enthalpy:        0.889 kcal/mol
   Rotational Enthalpy:           0.889 kcal/mol
   Vibrational Enthalpy:        117.481 kcal/mol
   gas constant (RT):             0.592 kcal/mol
   Translational Entropy:        40.967  cal/mol.K
   Rotational Entropy:           30.163  cal/mol.K
   Vibrational Entropy:          37.837  cal/mol.K

   Total Enthalpy:              119.851 kcal/mol
   Total Entropy:               108.968  cal/mol.K

 Total job time:  467.84s(wall), 1836.40s(cpu)
        *  Thank you very much for using Q-Chem.  Have a nice day.  *
