 Q-Chem 5.1, Q-Chem, Inc., Pleasanton, CA (2018)
 Q-Chem 5.1.0 for Intel X86 EM64T Linux

User input:
--------------------------------------------------------------
$molecule
0 1
C        -2.0755686880    0.8848949250    1.5421181707
Si       -1.4467882020   -0.0210174785    0.0000136164
C        -2.0188183693   -1.8164828176   -0.0000963271
C        -2.0754828044    0.8850648028   -1.5420246959
C         0.4616801416    0.0181217091    0.0000563264
C         1.1940027737    1.2182279155    0.0002494376
N         1.0881698034   -1.1824638003   -0.0001250838
C         2.4259224894   -1.2036993395   -0.0001235279
C         3.2220324107   -0.0574447019    0.0000575352
C         2.5869810705    1.1833566227    0.0002494431
H        -1.7421472398    1.9295860166    1.5611784896
H        -3.1722338513    0.8907547688    1.5736582147
H        -1.7192224428    0.4054330981    2.4613690333
H        -1.6423973183   -2.3467980787   -0.8812747872
H        -3.1135476058   -1.8862378248   -0.0001939992
H        -1.6425535022   -2.3468595289    0.8811127232
H        -1.7193397869    0.4055144030   -2.4613084647
H        -1.7417789970    1.9296658195   -1.5611057345
H        -3.1721486517    0.8912173227   -1.5734732794
H         0.6741862474    2.1737297904    0.0004042809
H         2.8862457118   -2.1913752270   -0.0002728969
H         4.3052590089   -0.1398494668    0.0000486382
H         3.1660042289    2.1037163436    0.0003972246
$end

$rem
JOBTYPE  =  opt
METHOD  =  M06
BASIS  =  6-311G+(d,p)
SCF_MAX_CYCLES  =  200
GEOM_OPT_MAX_CYCLES  =  300
GEOM_OPT_TOL_DISPLACEMENT = 10
GEOM_OPT_TOL_ENERGY = 1
GEOM_OPT_TOL_GRADIENT = 1
$end
--------------------------------------------------------------

   15    -656.7464506615      3.41e-09  Convergence criterion met
 Total energy in the final basis set =     -656.7464506615
   12    -656.7473842634      4.46e-09  Convergence criterion met
 Total energy in the final basis set =     -656.7473842634
   10    -656.7474325573      5.73e-09  Convergence criterion met
 Total energy in the final basis set =     -656.7474325573
   10    -656.7474493445      6.17e-09  Convergence criterion met
 Total energy in the final basis set =     -656.7474493445
    8    -656.7474501453      5.85e-09  Convergence criterion met
 Total energy in the final basis set =     -656.7474501453
    8    -656.7474505428      5.53e-09  Convergence criterion met
 Total energy in the final basis set =     -656.7474505428
    7    -656.7474505940      3.94e-09  Convergence criterion met
 Total energy in the final basis set =     -656.7474505940
    7    -656.7474506117      4.52e-09  Convergence criterion met
 **  OPTIMIZATION CONVERGED  **
 Total job time:  1057.45s(wall), 3003.83s(cpu)
        *  Thank you very much for using Q-Chem.  Have a nice day.  *
 Q-Chem 5.1, Q-Chem, Inc., Pleasanton, CA (2018)
 Q-Chem 5.1.0 for Intel X86 EM64T Linux

User input:
--------------------------------------------------------------
$comment
Now calculate the frequency at molecule  the same level of theory
$end

$molecule
read
$end

$rem
JOBTYPE  =  freq
METHOD  =  M06
BASIS  =  6-311G+(d,p)
SCF_GUESS = read
SCF_MAX_CYCLES  =  200
GEOM_OPT_MAX_CYCLES  =  300
GEOM_OPT_TOL_DISPLACEMENT = 10
GEOM_OPT_TOL_ENERGY = 1
GEOM_OPT_TOL_GRADIENT = 1
$end

--------------------------------------------------------------

 Total energy in the final basis set =     -656.7474539004
    7    -656.7474539004      3.34e-09  Convergence criterion met
 Total energy in the final basis set =     -656.7474539004
    7    -656.7474536600      9.14e-09  Convergence criterion met
 Total energy in the final basis set =     -656.7474536600
    8    -656.7474537273      2.18e-09  Convergence criterion met
 Total energy in the final basis set =     -656.7474537273
    8    -656.7474534386      2.44e-09  Convergence criterion met
 Total energy in the final basis set =     -656.7474534386
    8    -656.7474534963      3.09e-09  Convergence criterion met
 Total energy in the final basis set =     -656.7474534963
    8    -656.7474538973      2.13e-09  Convergence criterion met
 Total energy in the final basis set =     -656.7474538973
    6    -656.7474538972      8.10e-09  Convergence criterion met
 Total energy in the final basis set =     -656.7474538972

                    Orbital Energies (a.u.)
 --------------------------------------------------------------

 Alpha MOs
 -- Occupied --
-66.240 -14.384 -10.273 -10.261 -10.260 -10.251 -10.250 -10.210
-10.210 -10.203  -5.349  -3.669  -3.668  -3.668  -0.958  -0.823
 -0.776  -0.724  -0.690  -0.687  -0.642  -0.638  -0.542  -0.500
 -0.487  -0.458  -0.432  -0.425  -0.423  -0.418  -0.413  -0.401
 -0.400  -0.395  -0.390  -0.327  -0.318  -0.312  -0.306  -0.275
 -0.260

          Ground-State Mulliken Net Atomic Charges

     Atom                 Charge (a.u.)
  ----------------------------------------
      1 C                    -0.702897
      2 Si                    0.983943
      3 C                    -0.709305
      4 C                    -0.702909
      5 C                    -0.585545
      6 C                     0.070660
      7 N                     0.144122
      8 C                    -0.186949
      9 C                    -0.022781
     10 C                    -0.472566
     11 H                     0.156345
     12 H                     0.171750
     13 H                     0.179220
     14 H                     0.181144
     15 H                     0.168057
     16 H                     0.181145
     17 H                     0.179219
     18 H                     0.156343
     19 H                     0.171749
     20 H                     0.150935
     21 H                     0.152814
     22 H                     0.169258
     23 H                     0.166248
  ----------------------------------------
  Sum of atomic charges =     0.000000

                    Cartesian Multipole Moments
 -----------------------------------------------------------------
    Charge (ESU x 10^10)
                 0.0000
    Dipole Moment (Debye)
         X       0.8499      Y       1.5593      Z      -0.0005
       Tot       1.7758
    Quadrupole Moments (Debye-Ang)
        XX     -61.1277     XY       1.0167     YY     -68.9616
        XZ      -0.0021     YZ      -0.0017     ZZ     -71.8252

             Standard Nuclear Orientation (Angstroms)
    I     Atom           X                Y                Z
 ----------------------------------------------------------------
    1      C      -2.0396051333     0.8998602013     1.5306860069
    2      Si     -1.4563393648    -0.0193455417    -0.0000007334
    3      C      -2.0617414173    -1.7843833825    -0.0000806922
    4      C      -2.0396400833     0.9000135656    -1.5305820045
    5      C       0.4434028944    -0.0077733100    -0.0000142059
    6      C       1.1576014722     1.1937074671    -0.0000106027
    7      N       1.0715085269    -1.1962740990    -0.0000104249
    8      C       2.4010114891    -1.2062865981    -0.0000013803
    9      C       3.1823042036    -0.0590944981     0.0000038433
   10      C       2.5424829239     1.1703933566    -0.0000017002
   11      H      -1.6110649205     1.9080194325     1.5744962617
   12      H      -3.1317831681     1.0009436521     1.5434967362
   13      H      -1.7387093834     0.3717961946     2.4412481135
   14      H      -1.6955050173    -2.3208455237    -0.8802646465
   15      H      -3.1577414842    -1.8268147353    -0.0000546043
   16      H      -1.6954583424    -2.3209408317     0.8800258490
   17      H      -1.7387910552     0.3720282570    -2.4412046553
   18      H      -1.6110812499     1.9081679396    -1.5743157828
   19      H      -3.1318163023     1.0011224897    -1.5433426169
   20      H       0.6212858184     2.1408444134    -0.0000131314
   21      H       2.8794421894    -2.1857885169     0.0000031736
   22      H       4.2666716590    -0.1342092855     0.0000119223
   23      H       3.1178445811     2.0918119784     0.0000010367
 ----------------------------------------------------------------

 Frequency:        10.47                  76.90                 122.24
 Force Cnst:      0.0002                 0.0098                 0.0250
 Red. Mass:       3.5989                 2.8028                 2.8428
 IR Intens:        0.549                  0.671                  0.990
 Frequency:       129.92                 141.74                 142.80
 Force Cnst:      0.0104                 0.0126                 0.0130
 Red. Mass:       1.0431                 1.0623                 1.0859
 IR Intens:        0.035                  0.199                  0.035
 Frequency:       176.38                 176.77                 185.38
 Force Cnst:      0.0438                 0.0418                 0.0482
 Red. Mass:       2.3922                 2.2699                 2.3808
 IR Intens:        0.418                  0.015                  1.702
 Frequency:       230.17                 287.58                 370.56
 Force Cnst:      0.1042                 0.1850                 0.4180
 Red. Mass:       3.3366                 3.7976                 5.1669
 IR Intens:        7.198                  7.953                 18.238
 Frequency:       390.49                 464.43                 618.13
 Force Cnst:      0.3098                 0.3854                 1.1737
 Red. Mass:       3.4484                 3.0323                 5.2138
 IR Intens:        3.888                  7.024                  7.873
 Frequency:       626.71                 659.27                 682.84
 Force Cnst:      1.0057                 0.2992                 0.4888
 Red. Mass:       4.3461                 1.1685                 1.7794
 IR Intens:        8.032                  0.030                  0.648
 Frequency:       690.75                 723.21                 731.89
 Force Cnst:      0.4672                 1.4914                 0.6197
 Red. Mass:       1.6618                 4.8395                 1.9637
 IR Intens:        1.438                  0.119                 49.768
 Frequency:       751.54                 756.59                 779.97
 Force Cnst:      0.4390                 0.5927                 1.0205
 Red. Mass:       1.3191                 1.7575                 2.8472
 IR Intens:       25.926                 21.196                  0.035
 Frequency:       846.30                 849.41                 855.37
 Force Cnst:      0.7464                 0.7677                 0.7543
 Red. Mass:       1.7688                 1.8059                 1.7497
 IR Intens:       78.153                 77.263                182.174
 Frequency:       898.62                 974.17                1002.32
 Force Cnst:      0.6184                 0.7948                 4.2339
 Red. Mass:       1.2998                 1.4215                 7.1529
 IR Intens:        0.012                  0.048                  4.850
 Frequency:      1005.54                1068.84                1099.43
 Force Cnst:      0.7890                 1.7569                 1.0458
 Red. Mass:       1.3245                 2.6101                 1.4684
 IR Intens:        0.082                  2.117                  3.216
 Frequency:      1156.12                1166.13                1253.68
 Force Cnst:      1.0376                 1.8229                 1.1749
 Red. Mass:       1.3175                 2.2752                 1.2687
 IR Intens:        7.461                 11.870                 45.491
 Frequency:      1257.68                1265.67                1271.44
 Force Cnst:      1.1882                 1.2749                 3.5481
 Red. Mass:       1.2749                 1.3508                 3.7252
 IR Intens:       43.564                 20.727                  7.977
 Frequency:      1297.05                1411.26                1419.15
 Force Cnst:      1.5968                 1.2348                 1.2477
 Red. Mass:       1.6110                 1.0523                 1.0515
 IR Intens:        2.542                  0.582                  0.454
 Frequency:      1424.18                1424.34                1427.02
 Force Cnst:      1.2520                 1.2681                 1.3317
 Red. Mass:       1.0477                 1.0609                 1.1100
 IR Intens:        5.882                  0.101                 12.832
 Frequency:      1434.16                1440.49                1485.05
 Force Cnst:      2.2169                 1.2815                 2.9584
 Red. Mass:       1.8294                 1.0482                 2.2768
 IR Intens:        8.798                  7.956                  9.373
 Frequency:      1610.00                1631.94                3011.70
 Force Cnst:      9.1902                 9.5377                 5.5322
 Red. Mass:       6.0176                 6.0784                 1.0352
 IR Intens:       15.768                 22.711                  6.999
 Frequency:      3012.43                3019.41                3100.51
 Force Cnst:      5.5355                 5.5652                 6.2337
 Red. Mass:       1.0353                 1.0361                 1.1006
 IR Intens:        6.962                  6.373                  0.343
 Frequency:      3100.79                3104.98                3105.14
 Force Cnst:      6.2329                 6.2524                 6.2532
 Red. Mass:       1.1003                 1.1007                 1.1007
 IR Intens:       24.328                 12.290                  5.892
 Frequency:      3109.38                3112.71                3113.90
 Force Cnst:      6.2730                 6.2758                 6.2202
 Red. Mass:       1.1012                 1.0994                 1.0888
 IR Intens:       11.293                  6.702                 27.595
 Frequency:      3133.56                3153.57                3169.89
 Force Cnst:      6.2910                 6.3981                 6.5017
 Red. Mass:       1.0874                 1.0919                 1.0982
 IR Intens:        4.851                 16.397                 18.432

 STANDARD THERMODYNAMIC QUANTITIES AT   298.15 K  AND     1.00 ATM

   This Molecule has  0 Imaginary Frequencies
   Zero point vibrational energy:      117.439 kcal/mol

   Atom    1 Element C  Has Mass   12.00000
   Atom    2 Element Si Has Mass   27.97693
   Atom    3 Element C  Has Mass   12.00000
   Atom    4 Element C  Has Mass   12.00000
   Atom    5 Element C  Has Mass   12.00000
   Atom    6 Element C  Has Mass   12.00000
   Atom    7 Element N  Has Mass   14.00307
   Atom    8 Element C  Has Mass   12.00000
   Atom    9 Element C  Has Mass   12.00000
   Atom   10 Element C  Has Mass   12.00000
   Atom   11 Element H  Has Mass    1.00783
   Atom   12 Element H  Has Mass    1.00783
   Atom   13 Element H  Has Mass    1.00783
   Atom   14 Element H  Has Mass    1.00783
   Atom   15 Element H  Has Mass    1.00783
   Atom   16 Element H  Has Mass    1.00783
   Atom   17 Element H  Has Mass    1.00783
   Atom   18 Element H  Has Mass    1.00783
   Atom   19 Element H  Has Mass    1.00783
   Atom   20 Element H  Has Mass    1.00783
   Atom   21 Element H  Has Mass    1.00783
   Atom   22 Element H  Has Mass    1.00783
   Atom   23 Element H  Has Mass    1.00783
   Molecular Mass:   151.081790 amu
   Principal axes and moments of inertia in amu*Bohr^2:
                             1           2           3
    Eigenvalues --      878.58666  2413.75203  2723.82495
          X               1.00000     0.00185     0.00000
          Y              -0.00185     1.00000    -0.00000
          Z              -0.00000     0.00000     1.00000
   Rotational Symmetry Number is   1
   The Molecule is an Asymmetric Top
   Translational Enthalpy:        0.889 kcal/mol
   Rotational Enthalpy:           0.889 kcal/mol
   Vibrational Enthalpy:        123.551 kcal/mol
   gas constant (RT):             0.592 kcal/mol
   Translational Entropy:        40.948  cal/mol.K
   Rotational Entropy:           30.136  cal/mol.K
   Vibrational Entropy:          41.206  cal/mol.K

   Total Enthalpy:              125.921 kcal/mol
   Total Entropy:               112.290  cal/mol.K

 Total job time:  11633.05s(wall), 32528.99s(cpu)
        *  Thank you very much for using Q-Chem.  Have a nice day.  *
