 Q-Chem 5.1, Q-Chem, Inc., Pleasanton, CA (2018)
 Q-Chem 5.1.0 for Intel X86 EM64T Linux

User input:
--------------------------------------------------------------
$molecule
0 1
C        -1.8454531289    0.8817141826    1.5417372476
Si       -1.1966688626   -0.0085878877   -0.0000853128
C        -1.7359833264   -1.8170603459   -0.0000975217
C        -1.8452977483    0.8816977625   -1.5419825079
C         0.6879861376    0.0609452057    0.0000105315
N         2.6931671651   -0.6812717886    0.0000060667
N         1.4039214672   -1.0777112309   -0.0000520091
C         1.5609750923    1.1885223099    0.0001407610
C         2.8383898081    0.6703715303    0.0001583298
H        -1.5192346883    1.9287050046    1.5662039289
H        -2.9422470895    0.8777642037    1.5696165035
H        -1.4860929031    0.4011272112    2.4592060387
H        -1.3522733174   -2.3409686290   -0.8823313992
H        -2.8291547336   -1.9070835451   -0.0003114885
H        -1.3526318763   -2.3408718757    0.8823506956
H        -1.4859033920    0.4010586761   -2.4594107151
H        -1.5190118102    1.9286672478   -1.5664616812
H        -2.9420899653    0.8778151685   -1.5699369716
H         3.4196775612   -1.3818379896   -0.0000377042
H         1.2906280810    2.2353652967    0.0002183700
H         3.8127253151    1.1386705700    0.0002425157
$end

$rem
JOBTYPE  =  opt
METHOD  =  M06
BASIS  =  6-311G+(d,p)
SCF_MAX_CYCLES  =  200
GEOM_OPT_MAX_CYCLES  =  300
GEOM_OPT_TOL_DISPLACEMENT = 10
GEOM_OPT_TOL_ENERGY = 1
GEOM_OPT_TOL_GRADIENT = 1
$end
--------------------------------------------------------------

   15    -634.6971442906      4.89e-09  Convergence criterion met
 Total energy in the final basis set =     -634.6971442906
   12    -634.6980163704      3.37e-09  Convergence criterion met
 Total energy in the final basis set =     -634.6980163704
   10    -634.6980847322      9.89e-09  Convergence criterion met
 Total energy in the final basis set =     -634.6980847322
   10    -634.6981164311      7.39e-09  Convergence criterion met
 Total energy in the final basis set =     -634.6981164311
    9    -634.6981194792      2.88e-09  Convergence criterion met
 Total energy in the final basis set =     -634.6981194792
    9    -634.6981202489      3.23e-09  Convergence criterion met
 Total energy in the final basis set =     -634.6981202489
    8    -634.6981204650      9.42e-09  Convergence criterion met
 Total energy in the final basis set =     -634.6981204650
    8    -634.6981206645      5.65e-09  Convergence criterion met
 **  OPTIMIZATION CONVERGED  **
 Total job time:  923.03s(wall), 2612.26s(cpu)
        *  Thank you very much for using Q-Chem.  Have a nice day.  *
 Q-Chem 5.1, Q-Chem, Inc., Pleasanton, CA (2018)
 Q-Chem 5.1.0 for Intel X86 EM64T Linux

User input:
--------------------------------------------------------------
$comment
Now calculate the frequency at molecule  the same level of theory
$end

$molecule
read
$end

$rem
JOBTYPE  =  freq
METHOD  =  M06
BASIS  =  6-311G+(d,p)
SCF_GUESS = read
SCF_MAX_CYCLES  =  200
GEOM_OPT_MAX_CYCLES  =  300
GEOM_OPT_TOL_DISPLACEMENT = 10
GEOM_OPT_TOL_ENERGY = 1
GEOM_OPT_TOL_GRADIENT = 1
$end

--------------------------------------------------------------

 Total energy in the final basis set =     -634.6981233462
    6    -634.6981233454      5.59e-09  Convergence criterion met
 Total energy in the final basis set =     -634.6981233454
    8    -634.6981228994      4.21e-09  Convergence criterion met
 Total energy in the final basis set =     -634.6981228994
    8    -634.6981227974      7.49e-09  Convergence criterion met
 Total energy in the final basis set =     -634.6981227974
    8    -634.6981232072      5.90e-09  Convergence criterion met
 Total energy in the final basis set =     -634.6981232072
    8    -634.6981231448      4.59e-09  Convergence criterion met
 Total energy in the final basis set =     -634.6981231448
    8    -634.6981233461      2.84e-09  Convergence criterion met
 Total energy in the final basis set =     -634.6981233461
    6    -634.6981233463      5.97e-09  Convergence criterion met
 Total energy in the final basis set =     -634.6981233463

                    Orbital Energies (a.u.)
 --------------------------------------------------------------

 Alpha MOs
 -- Occupied --
-66.238 -14.461 -14.404 -10.274 -10.237 -10.230 -10.206 -10.206
-10.202  -5.346  -3.666  -3.666  -3.666  -1.066  -0.831  -0.794
 -0.722  -0.686  -0.685  -0.620  -0.599  -0.560  -0.476  -0.462
 -0.444  -0.435  -0.421  -0.414  -0.412  -0.399  -0.396  -0.387
 -0.331  -0.315  -0.310  -0.296  -0.272  -0.269

          Ground-State Mulliken Net Atomic Charges

     Atom                 Charge (a.u.)
  ----------------------------------------
      1 C                    -0.666901
      2 Si                    0.939965
      3 C                    -0.720809
      4 C                    -0.666914
      5 C                    -0.571229
      6 N                    -0.082673
      7 N                    -0.075280
      8 C                    -0.033102
      9 C                    -0.310329
     10 H                     0.156809
     11 H                     0.169060
     12 H                     0.176594
     13 H                     0.179922
     14 H                     0.170869
     15 H                     0.179925
     16 H                     0.176591
     17 H                     0.156810
     18 H                     0.169062
     19 H                     0.332983
     20 H                     0.160433
     21 H                     0.158216
  ----------------------------------------
  Sum of atomic charges =     0.000000

                    Cartesian Multipole Moments
 -----------------------------------------------------------------
    Charge (ESU x 10^10)
                 0.0000
    Dipole Moment (Debye)
         X       1.8602      Y       0.8001      Z      -0.0009
       Tot       2.0249
    Quadrupole Moments (Debye-Ang)
        XX     -49.6804     XY      -0.9848     YY     -63.5602
        XZ      -0.0036     YZ      -0.0012     ZZ     -66.0872

             Standard Nuclear Orientation (Angstroms)
    I     Atom           X                Y                Z
 ----------------------------------------------------------------
    1      C      -1.8058238257     0.8947240619     1.5281118827
    2      Si     -1.2128181362    -0.0193787108    -0.0000006373
    3      C      -1.7825058749    -1.7985294680    -0.0001950025
    4      C      -1.8058294472     0.8950569753    -1.5279122000
    5      C       0.6650328045     0.0194021756    -0.0000037870
    6      N       2.6646061240    -0.6960532722     0.0000060881
    7      N       1.3867660117    -1.1021998688     0.0000043547
    8      C       1.5159943938     1.1533969137    -0.0000097730
    9      C       2.7919603017     0.6513181588    -0.0000018979
   10      H      -1.3741778968     1.9022555661     1.5646563066
   11      H      -2.8977219218     0.9971538137     1.5423079271
   12      H      -1.5007807034     0.3712061719     2.4398128944
   13      H      -1.4043465285    -2.3257686139    -0.8812516042
   14      H      -2.8768101592    -1.8694932184    -0.0001891258
   15      H      -1.4043224260    -2.3259722720     0.8807294033
   16      H      -1.5008092143     0.3717290916    -2.4397295316
   17      H      -1.3741721389     1.9025908578    -1.5642513153
   18      H      -2.8977262017     0.9975058138    -1.5420701387
   19      H       3.3986156199    -1.3867877974     0.0000115428
   20      H       1.2226215234     2.1949044410    -0.0000230607
   21      H       3.7565088913     1.1375371792    -0.0000028095
 ----------------------------------------------------------------

 Frequency:         8.50                  89.80                 117.65
 Force Cnst:      0.0002                 0.0122                 0.0089
 Red. Mass:       3.9044                 2.5631                 1.0892
 IR Intens:        0.408                  1.520                  0.112
 Frequency:       117.69                 139.72                 143.02
 Force Cnst:      0.0199                 0.0127                 0.0128
 Red. Mass:       2.4363                 1.1065                 1.0608
 IR Intens:        1.066                  0.081                  0.114
 Frequency:       177.46                 179.01                 181.11
 Force Cnst:      0.0419                 0.0442                 0.0466
 Red. Mass:       2.2583                 2.3398                 2.4099
 IR Intens:        0.012                  0.160                  1.912
 Frequency:       284.56                 295.06                 409.82
 Force Cnst:      0.1885                 0.1969                 0.5129
 Red. Mass:       3.9508                 3.8378                 5.1827
 IR Intens:       19.285                 12.195                 19.018
 Frequency:       545.92                 629.88                 643.12
 Force Cnst:      0.3053                 0.7804                 0.4991
 Red. Mass:       1.7387                 3.3387                 2.0482
 IR Intens:       58.953                 13.431                 10.557
 Frequency:       657.86                 680.66                 691.40
 Force Cnst:      0.2992                 0.5153                 0.4749
 Red. Mass:       1.1735                 1.8877                 1.6862
 IR Intens:        0.059                  0.565                  1.242
 Frequency:       702.23                 751.32                 755.40
 Force Cnst:      0.9530                 0.4385                 0.5917
 Red. Mass:       3.2802                 1.3185                 1.7600
 IR Intens:        9.178                 85.838                 25.172
 Frequency:       758.12                 846.14                 848.41
 Force Cnst:      0.5859                 0.7440                 0.7187
 Red. Mass:       1.7302                 1.7637                 1.6946
 IR Intens:        1.253                 92.415                146.619
 Frequency:       849.16                 860.54                 937.48
 Force Cnst:      0.7624                 0.5876                 2.4481
 Red. Mass:       1.7945                 1.3468                 4.7278
 IR Intens:       95.547                  0.023                  1.705
 Frequency:       962.89                1050.01                1086.53
 Force Cnst:      2.1435                 0.9280                 1.3088
 Red. Mass:       3.9239                 1.4286                 1.8817
 IR Intens:       11.232                 24.045                 35.926
 Frequency:      1185.71                1241.27                1252.52
 Force Cnst:      1.9620                 3.0236                 1.1773
 Red. Mass:       2.3686                 3.3308                 1.2737
 IR Intens:       12.590                  1.821                 47.351
 Frequency:      1257.21                1265.64                1370.11
 Force Cnst:      1.1852                 1.1832                 9.9175
 Red. Mass:       1.2727                 1.2536                 8.9669
 IR Intens:       43.322                 23.780                 19.460
 Frequency:      1411.08                1415.50                1419.13
 Force Cnst:      1.2349                 2.9232                 1.2471
 Red. Mass:       1.0526                 2.4762                 1.0510
 IR Intens:        0.180                  9.586                  0.824
 Frequency:      1423.73                1424.33                1428.43
 Force Cnst:      1.2512                 1.2572                 1.3072
 Red. Mass:       1.0476                 1.0518                 1.0874
 IR Intens:        5.926                  3.019                  3.879
 Frequency:      1441.51                1471.63                1546.62
 Force Cnst:      1.2847                 3.8215                 4.5017
 Red. Mass:       1.0493                 2.9949                 3.1942
 IR Intens:        8.462                  4.478                  6.379
 Frequency:      3010.75                3011.48                3018.47
 Force Cnst:      5.5286                 5.5319                 5.5610
 Red. Mass:       1.0352                 1.0353                 1.0359
 IR Intens:        6.909                  6.906                  6.374
 Frequency:      3098.87                3099.13                3106.13
 Force Cnst:      6.2259                 6.2252                 6.2584
 Red. Mass:       1.1004                 1.1001                 1.1010
 IR Intens:        1.385                 22.469                 15.461
 Frequency:      3106.18                3108.88                3109.75
 Force Cnst:      6.2591                 6.2718                 6.2643
 Red. Mass:       1.1011                 1.1014                 1.0994
 IR Intens:        5.709                 10.053                  7.212
 Frequency:      3215.21                3238.87                3650.98
 Force Cnst:      6.6462                 6.8344                 8.4947
 Red. Mass:       1.0912                 1.1058                 1.0816
 IR Intens:        1.348                  2.193                 86.132

 STANDARD THERMODYNAMIC QUANTITIES AT   298.15 K  AND     1.00 ATM

   This Molecule has  0 Imaginary Frequencies
   Zero point vibrational energy:      106.831 kcal/mol

   Atom    1 Element C  Has Mass   12.00000
   Atom    2 Element Si Has Mass   27.97693
   Atom    3 Element C  Has Mass   12.00000
   Atom    4 Element C  Has Mass   12.00000
   Atom    5 Element C  Has Mass   12.00000
   Atom    6 Element N  Has Mass   14.00307
   Atom    7 Element N  Has Mass   14.00307
   Atom    8 Element C  Has Mass   12.00000
   Atom    9 Element C  Has Mass   12.00000
   Atom   10 Element H  Has Mass    1.00783
   Atom   11 Element H  Has Mass    1.00783
   Atom   12 Element H  Has Mass    1.00783
   Atom   13 Element H  Has Mass    1.00783
   Atom   14 Element H  Has Mass    1.00783
   Atom   15 Element H  Has Mass    1.00783
   Atom   16 Element H  Has Mass    1.00783
   Atom   17 Element H  Has Mass    1.00783
   Atom   18 Element H  Has Mass    1.00783
   Atom   19 Element H  Has Mass    1.00783
   Atom   20 Element H  Has Mass    1.00783
   Atom   21 Element H  Has Mass    1.00783
   Molecular Mass:   140.077030 amu
   Principal axes and moments of inertia in amu*Bohr^2:
                             1           2           3
    Eigenvalues --      765.24961  1978.58845  2177.28417
          X               0.99998     0.00560    -0.00000
          Y              -0.00560     0.99998     0.00000
          Z               0.00000    -0.00000     1.00000
   Rotational Symmetry Number is   1
   The Molecule is an Asymmetric Top
   Translational Enthalpy:        0.889 kcal/mol
   Rotational Enthalpy:           0.889 kcal/mol
   Vibrational Enthalpy:        112.555 kcal/mol
   gas constant (RT):             0.592 kcal/mol
   Translational Entropy:        40.722  cal/mol.K
   Rotational Entropy:           29.579  cal/mol.K
   Vibrational Entropy:          39.503  cal/mol.K

   Total Enthalpy:              114.925 kcal/mol
   Total Entropy:               109.804  cal/mol.K

 Total job time:  8616.36s(wall), 23972.71s(cpu)
        *  Thank you very much for using Q-Chem.  Have a nice day.  *
