 Q-Chem 5.1, Q-Chem, Inc., Pleasanton, CA (2018)
 Q-Chem 5.1.0 for Intel X86 EM64T Linux

User input:
--------------------------------------------------------------
$comment
optimize molecule at MP2/6-311G+(d,p)
$end

$molecule
0 1
Si     1.712  -0.000   0.000
C    -0.027   0.000   0.000
H     2.149  -0.610  -1.056
H     2.149  -0.610   1.056
H     2.149   1.219  -0.000
H    -0.393   0.513   0.889
H    -0.393  -1.027   0.000
H    -0.393   0.513  -0.889
$end

$rem
JOBTYPE  =  opt
METHOD  =  MP2
BASIS  =  6-311G+(d,p)
SCF_MAX_CYCLES  =  200
GEOM_OPT_MAX_CYCLES  =  300
GEOM_OPT_TOL_DISPLACEMENT = 120
GEOM_OPT_TOL_ENERGY = 10
GEOM_OPT_TOL_GRADIENT = 20
$end
--------------------------------------------------------------

   11    -330.2501002412      3.90e-09  Convergence criterion met
 Total energy in the final basis set =     -330.2501002412
        MP2         total energy =                  -330.52324515 au
   10    -330.2942282908      3.19e-09  Convergence criterion met
 Total energy in the final basis set =     -330.2942282908
        MP2         total energy =                  -330.56572947 au
   10    -330.3085610241      2.57e-09  Convergence criterion met
 Total energy in the final basis set =     -330.3085610241
        MP2         total energy =                  -330.57916554 au
    9    -330.3103553469      6.37e-09  Convergence criterion met
 Total energy in the final basis set =     -330.3103553469
        MP2         total energy =                  -330.58069728 au
    9    -330.3104696956      1.59e-09  Convergence criterion met
 Total energy in the final basis set =     -330.3104696956
        MP2         total energy =                  -330.58075700 au
 **  OPTIMIZATION CONVERGED  **
 Total job time:  25.93s(wall), 71.46s(cpu)
        *  Thank you very much for using Q-Chem.  Have a nice day.  *
 Q-Chem 5.1, Q-Chem, Inc., Pleasanton, CA (2018)
 Q-Chem 5.1.0 for Intel X86 EM64T Linux

User input:
--------------------------------------------------------------
$comment
Now calculate the frequency at molecule  the same level of theory
$end

$molecule
read
$end

$rem
JOBTYPE  =  freq
METHOD  =  MP2
BASIS  =  6-311G+(d,p)
SCF_GUESS = read
SCF_MAX_CYCLES  =  200
GEOM_OPT_MAX_CYCLES  =  300
GEOM_OPT_TOL_DISPLACEMENT = 120
GEOM_OPT_TOL_ENERGY = 10
GEOM_OPT_TOL_GRADIENT = 20
$end

--------------------------------------------------------------

    7    -330.3104788183      2.37e-09  Convergence criterion met
 Total energy in the final basis set =     -330.3104788183
        MP2         total energy =                  -330.58075743 au
    7    -330.3104726875      2.49e-09  Convergence criterion met
 Total energy in the final basis set =     -330.3104726875
        MP2         total energy =                  -330.58075741 au
    7    -330.3104836272      2.72e-09  Convergence criterion met
 Total energy in the final basis set =     -330.3104836272
        MP2         total energy =                  -330.58075700 au
    7    -330.3104670673      3.63e-09  Convergence criterion met
 Total energy in the final basis set =     -330.3104670673
        MP2         total energy =                  -330.58075700 au
    6    -330.3104758120      8.85e-09  Convergence criterion met
 Total energy in the final basis set =     -330.3104758120
        MP2         total energy =                  -330.58075748 au

                    Orbital Energies (a.u.)
 --------------------------------------------------------------

 Alpha MOs
 -- Occupied --
-68.767 -11.210  -6.115  -4.222  -4.222  -4.221  -0.949  -0.701
 -0.564  -0.564  -0.469  -0.469  -0.456

          Ground-State Mulliken Net Atomic Charges

     Atom                 Charge (a.u.)
  ----------------------------------------
      1 Si                    0.764486
      2 C                    -0.731347
      3 H                    -0.170856
      4 H                    -0.170868
      5 H                    -0.170862
      6 H                     0.159822
      7 H                     0.159815
      8 H                     0.159810
  ----------------------------------------
  Sum of atomic charges =     0.000000

                    Cartesian Multipole Moments
 -----------------------------------------------------------------
    Charge (ESU x 10^10)
                -0.0000
    Dipole Moment (Debye)
         X      -0.6199      Y       0.0000      Z       0.0004
       Tot       0.6199
    Quadrupole Moments (Debye-Ang)
        XX     -23.8374     XY      -0.0000     YY     -23.4213
        XZ      -0.0010     YZ      -0.0017     ZZ     -23.4213

             Standard Nuclear Orientation (Angstroms)
    I     Atom           X                Y                Z
 ----------------------------------------------------------------
    1      Si      0.6355190350     0.0000009374    -0.0000000000
    2      C      -1.2414377090     0.0000025015    -0.0000000000
    3      H       1.1509653040    -0.6926594388    -1.1997123556
    4      H       1.1509653040    -0.6926594373     1.1997123565
    5      H       1.1509862013     1.3853029413    -0.0000000009
    6      H      -1.6338589612     0.5102602477     0.8838053531
    7      H      -1.6338391230    -1.0205326922     0.0000000007
    8      H      -1.6338589612     0.5102602466    -0.8838053537
 ----------------------------------------------------------------

 Frequency:       199.58                 524.44                 524.44
 Force Cnst:      0.0237                 0.1686                 0.1686
 Red. Mass:       1.0078                 1.0405                 1.0405
 IR Intens:        0.000                 13.613                 13.618
 Frequency:       717.97                 905.86                 905.86
 Force Cnst:      1.1500                 0.6350                 0.6350
 Red. Mass:       3.7866                 1.3134                 1.3134
 IR Intens:       11.743                 63.526                 63.527
 Frequency:       988.35                1004.45                1004.45
 Force Cnst:      0.6386                 0.6169                 0.6169
 Red. Mass:       1.1096                 1.0378                 1.0378
 IR Intens:      284.115                 70.227                 70.213
 Frequency:      1319.95                1472.87                1472.87
 Force Cnst:      1.2797                 1.3412                 1.3412
 Red. Mass:       1.2467                 1.0493                 1.0493
 IR Intens:       21.251                  4.309                  4.309
 Frequency:      2308.22                2308.23                2310.07
 Force Cnst:      3.2988                 3.2988                 3.2047
 Red. Mass:       1.0509                 1.0509                 1.0193
 IR Intens:      159.066                159.068                 69.271
 Frequency:      3081.22                3175.80                3175.81
 Force Cnst:      5.7929                 6.5416                 6.5416
 Red. Mass:       1.0356                 1.1008                 1.1008
 IR Intens:        5.087                  6.972                  6.973

 STANDARD THERMODYNAMIC QUANTITIES AT   298.15 K  AND     1.00 ATM

   This Molecule has  0 Imaginary Frequencies
   Zero point vibrational energy:       39.171 kcal/mol

   Atom    1 Element Si Has Mass   27.97693
   Atom    2 Element C  Has Mass   12.00000
   Atom    3 Element H  Has Mass    1.00783
   Atom    4 Element H  Has Mass    1.00783
   Atom    5 Element H  Has Mass    1.00783
   Atom    6 Element H  Has Mass    1.00783
   Atom    7 Element H  Has Mass    1.00783
   Atom    8 Element H  Has Mass    1.00783
   Molecular Mass:    46.023910 amu
   Principal axes and moments of inertia in amu*Bohr^2:
                             1           2           3
    Eigenvalues --       31.96540   165.34583   165.34585
          X               1.00000     0.00000     0.00000
          Y              -0.00000     0.00000     1.00000
          Z               0.00000     1.00000    -0.00000
   Rotational Symmetry Number is   1
   The Molecule is an Asymmetric Top
   Translational Enthalpy:        0.889 kcal/mol
   Rotational Enthalpy:           0.889 kcal/mol
   Vibrational Enthalpy:         39.998 kcal/mol
   gas constant (RT):             0.592 kcal/mol
   Translational Entropy:        37.405  cal/mol.K
   Rotational Entropy:           21.396  cal/mol.K
   Vibrational Entropy:           4.229  cal/mol.K

   Total Enthalpy:               42.368 kcal/mol
   Total Entropy:                63.030  cal/mol.K

 Total job time:  106.67s(wall), 307.50s(cpu)
        *  Thank you very much for using Q-Chem.  Have a nice day.  *
