 Q-Chem 5.1, Q-Chem, Inc., Pleasanton, CA (2018)
 Q-Chem 5.1.0 for Intel X86 EM64T Linux

User input:
--------------------------------------------------------------
$molecule
0 1
C         3.3367965184   -0.6014202332    0.4060845610
C         2.1519689947    0.1981010373   -0.0976548761
O         2.0506239949    1.4128461140    0.1031484074
N         1.2065612897   -0.5138960729   -0.7749883221
C        -0.0276993677    0.1159746419   -1.2455261659
Si       -1.4397254715   -0.0354147937    0.0253428753
C        -0.8630999722    0.6698857749    1.6716832897
C        -2.9384607911    0.9094105485   -0.6249423596
C        -1.8670624875   -1.8658244735    0.2237157366
H         3.2917475668   -0.6528108300    1.4972044517
H         3.3785156800   -1.6167224489    0.0034063507
H         4.2512447146   -0.0695736940    0.1373012089
H         1.3060880968   -1.5167662423   -0.8552461345
H        -0.2974881792   -0.3246726774   -2.2129445777
H         0.2124843806    1.1688996205   -1.4229959813
H        -0.0456245644    0.0740474676    2.0883370376
H        -1.6767659646    0.6790470203    2.4042696371
H        -0.4891076471    1.6900434164    1.5524637017
H        -3.2678845823    0.5226489226   -1.5945969616
H        -3.7839483463    0.8326048753    0.0660780080
H        -2.7092398961    1.9722883875   -0.7502596025
H        -2.2023299753   -2.3065440309   -0.7207779313
H        -2.6687447316   -2.0055749690    0.9558859878
H        -1.0038512303   -2.4406218329    0.5752785344
$end

$rem
JOBTYPE  =  opt
METHOD  =  MP2
BASIS  =  6-311G+(d,p)
SCF_MAX_CYCLES  =  200
GEOM_OPT_MAX_CYCLES  =  300
GEOM_OPT_TOL_DISPLACEMENT = 120
GEOM_OPT_TOL_ENERGY = 10
GEOM_OPT_TOL_GRADIENT = 20
$end
--------------------------------------------------------------

   14    -654.3435751120      4.79e-09  Convergence criterion met
 Total energy in the final basis set =     -654.3435751120
        MP2         total energy =                  -655.72835039 au
   11    -654.3442050753      4.14e-09  Convergence criterion met
 Total energy in the final basis set =     -654.3442050753
        MP2         total energy =                  -655.72855158 au
   10    -654.3442505121      8.15e-09  Convergence criterion met
 Total energy in the final basis set =     -654.3442505121
        MP2         total energy =                  -655.72857125 au
   10    -654.3443104603      6.00e-09  Convergence criterion met
 Total energy in the final basis set =     -654.3443104603
        MP2         total energy =                  -655.72857443 au
    9    -654.3442936478      6.99e-09  Convergence criterion met
 Total energy in the final basis set =     -654.3442936478
        MP2         total energy =                  -655.72858435 au
 **  OPTIMIZATION CONVERGED  **
 Total job time:  3471.63s(wall), 7508.56s(cpu)
        *  Thank you very much for using Q-Chem.  Have a nice day.  *
 Q-Chem 5.1, Q-Chem, Inc., Pleasanton, CA (2018)
 Q-Chem 5.1.0 for Intel X86 EM64T Linux

User input:
--------------------------------------------------------------
$comment
Now calculate the frequency at molecule  the same level of theory
$end

$molecule
read
$end

$rem
JOBTYPE  =  freq
METHOD  =  MP2
BASIS  =  6-311G+(d,p)
SCF_GUESS = read
SCF_MAX_CYCLES  =  200
GEOM_OPT_MAX_CYCLES  =  300
GEOM_OPT_TOL_DISPLACEMENT = 120
GEOM_OPT_TOL_ENERGY = 10
GEOM_OPT_TOL_GRADIENT = 20
$end

--------------------------------------------------------------

    6    -654.3443295700      7.76e-09  Convergence criterion met
 Total energy in the final basis set =     -654.3443295700
        MP2         total energy =                  -655.72858899 au
    6    -654.3443248540      6.94e-09  Convergence criterion met
 Total energy in the final basis set =     -654.3443248540
        MP2         total energy =                  -655.72858922 au
    7    -654.3443176290      3.72e-09  Convergence criterion met
 Total energy in the final basis set =     -654.3443176290
        MP2         total energy =                  -655.72858924 au
    5    -654.3443177134      9.10e-09  Convergence criterion met
 Total energy in the final basis set =     -654.3443177134
        MP2         total energy =                  -655.72858927 au
    6    -654.3443248309      9.99e-09  Convergence criterion met
 Total energy in the final basis set =     -654.3443248309
        MP2         total energy =                  -655.72858926 au

                    Orbital Energies (a.u.)
 --------------------------------------------------------------

 Alpha MOs
 -- Occupied --
-68.753 -20.511 -15.588 -11.351 -11.241 -11.239 -11.202 -11.200
-11.191  -6.100  -4.207  -4.207  -4.207  -1.373  -1.225  -1.015
 -0.969  -0.926  -0.919  -0.914  -0.787  -0.687  -0.651  -0.643
 -0.608  -0.580  -0.573  -0.566  -0.561  -0.553  -0.547  -0.539
 -0.531  -0.527  -0.520  -0.461  -0.432  -0.427  -0.418  -0.363

          Ground-State Mulliken Net Atomic Charges

     Atom                 Charge (a.u.)
  ----------------------------------------
      1 C                    -0.583884
      2 C                     0.185943
      3 O                    -0.335073
      4 N                    -0.171615
      5 C                    -0.633292
      6 Si                    1.294770
      7 C                    -0.818065
      8 C                    -0.783639
      9 C                    -0.863067
     10 H                     0.179927
     11 H                     0.128868
     12 H                     0.180050
     13 H                     0.257163
     14 H                     0.173932
     15 H                     0.217614
     16 H                     0.179024
     17 H                     0.165209
     18 H                     0.200835
     19 H                     0.166404
     20 H                     0.169940
     21 H                     0.174129
     22 H                     0.174049
     23 H                     0.176422
     24 H                     0.164356
  ----------------------------------------
  Sum of atomic charges =     0.000000

                    Cartesian Multipole Moments
 -----------------------------------------------------------------
    Charge (ESU x 10^10)
                 0.0000
    Dipole Moment (Debye)
         X      -0.9479      Y      -3.3567      Z      -0.3265
       Tot       3.5032
    Quadrupole Moments (Debye-Ang)
        XX     -65.8215     XY      -7.7807     YY     -69.0560
        XZ       0.5507     YZ       0.8361     ZZ     -65.6732

             Standard Nuclear Orientation (Angstroms)
    I     Atom           X                Y                Z
 ----------------------------------------------------------------
    1      C       3.3784782077    -0.5884450200     0.3923484971
    2      C       2.1833148577     0.1642762055    -0.1618079326
    3      O       2.1004062709     1.3881497865    -0.1097355179
    4      N       1.2062736235    -0.6132300520    -0.7146369275
    5      C      -0.0333265935    -0.0368630664    -1.2374422512
    6      Si     -1.4164656060    -0.0074756192     0.0688307583
    7      C      -0.8113101010     0.9256976971     1.5772535636
    8      C      -2.9336933565     0.8158885708    -0.6747569170
    9      C      -1.8104923909    -1.7888873627     0.5338811703
   10      H       3.4091706817    -0.4435630712     1.4754035773
   11      H       3.3553322245    -1.6592027156     0.1743000401
   12      H       4.2868987486    -0.1530337077    -0.0289704906
   13      H       1.3122481118    -1.6157511629    -0.6909213111
   14      H      -0.3323702943    -0.6026267960    -2.1279281696
   15      H       0.2026312893     0.9812802665    -1.5642677406
   16      H       0.0788390588     0.4500279301     2.0008692530
   17      H      -1.5817936168     0.9523487213     2.3557767247
   18      H      -0.5386209751     1.9540342024     1.3226014941
   19      H      -3.2836316991     0.2815161428    -1.5644235143
   20      H      -3.7595309664     0.8390165559     0.0442674043
   21      H      -2.7183838162     1.8492199537    -0.9662210588
   22      H      -2.1622443765    -2.3619809281    -0.3310503053
   23      H      -2.5933014999    -1.8319778504     1.2988786858
   24      H      -0.9297136592    -2.2972389463     0.9415406498
 ----------------------------------------------------------------

 Frequency:        29.66                  44.80                  48.90
 Force Cnst:      0.0016                 0.0041                 0.0031
 Red. Mass:       3.1778                 3.4803                 2.1710
 IR Intens:        2.166                 20.584                  0.304
 Frequency:        76.25                 135.25                 141.76
 Force Cnst:      0.0048                 0.0152                 0.0196
 Red. Mass:       1.3869                 1.4132                 1.6589
 IR Intens:        0.676                  3.246                  5.996
 Frequency:       153.00                 164.98                 167.12
 Force Cnst:      0.0228                 0.0172                 0.0232
 Red. Mass:       1.6545                 1.0755                 1.4072
 IR Intens:        2.364                  0.037                  0.378
 Frequency:       194.04                 209.12                 217.10
 Force Cnst:      0.0587                 0.0639                 0.0656
 Red. Mass:       2.6465                 2.4805                 2.3641
 IR Intens:        2.429                  4.081                  7.024
 Frequency:       292.17                 298.26                 340.53
 Force Cnst:      0.1077                 0.1296                 0.0945
 Red. Mass:       2.1417                 2.4724                 1.3827
 IR Intens:        6.699                 49.964                 31.528
 Frequency:       451.62                 588.32                 613.14
 Force Cnst:      0.3688                 0.6297                 0.6463
 Red. Mass:       3.0693                 3.0878                 2.9181
 IR Intens:        4.323                  2.833                  2.177
 Frequency:       638.21                 678.39                 690.09
 Force Cnst:      0.5711                 0.4550                 0.3324
 Red. Mass:       2.3798                 1.6782                 1.1848
 IR Intens:        2.004                  1.306                  0.021
 Frequency:       703.49                 714.80                 718.32
 Force Cnst:      0.5353                 0.7999                 0.7745
 Red. Mass:       1.8359                 2.6571                 2.5476
 IR Intens:        6.021                 11.274                  4.785
 Frequency:       790.66                 814.37                 874.99
 Force Cnst:      0.6236                 0.6151                 0.7646
 Red. Mass:       1.6930                 1.5741                 1.6949
 IR Intens:       20.443                 11.858                 94.855
 Frequency:       877.47                 896.44                 941.58
 Force Cnst:      0.8542                 0.8504                 1.3054
 Red. Mass:       1.8830                 1.7961                 2.4990
 IR Intens:       82.308                128.463                 11.451
 Frequency:      1008.49                1056.92                1114.40
 Force Cnst:      1.1121                 1.0964                 2.2131
 Red. Mass:       1.8560                 1.6658                 3.0246
 IR Intens:       20.920                  2.516                  0.655
 Frequency:      1249.30                1284.92                1301.30
 Force Cnst:      1.1854                 1.4818                 1.2701
 Red. Mass:       1.2890                 1.5233                 1.2731
 IR Intens:        3.001                 26.548                 44.927
 Frequency:      1305.01                1309.47                1318.52
 Force Cnst:      1.2669                 1.3975                 1.2995
 Red. Mass:       1.2625                 1.3833                 1.2687
 IR Intens:       38.450                 55.431                 13.736
 Frequency:      1410.53                1445.37                1455.26
 Force Cnst:      1.4910                 1.3356                 1.3130
 Red. Mass:       1.2720                 1.0851                 1.0523
 IR Intens:       27.370                 14.653                  2.220
 Frequency:      1461.11                1464.34                1474.37
 Force Cnst:      1.3231                 1.3297                 1.3436
 Red. Mass:       1.0519                 1.0525                 1.0491
 IR Intens:        0.179                  0.613                  9.180
 Frequency:      1476.73                1480.33                1488.15
 Force Cnst:      1.3454                 1.3513                 1.3661
 Red. Mass:       1.0471                 1.0466                 1.0470
 IR Intens:        4.573                  9.054                 10.617
 Frequency:      1504.78                1553.28                1746.43
 Force Cnst:      1.4281                 3.1777                16.5423
 Red. Mass:       1.0704                 2.2355                 9.2054
 IR Intens:       24.852                204.523                263.856
 Frequency:      3059.52                3063.13                3066.85
 Force Cnst:      5.7123                 5.7249                 5.7404
 Red. Mass:       1.0357                 1.0356                 1.0359
 IR Intens:        7.495                  6.105                  5.180
 Frequency:      3074.28                3084.71                3142.07
 Force Cnst:      5.9031                 5.8043                 6.4098
 Red. Mass:       1.0601                 1.0353                 1.1019
 IR Intens:       26.033                  9.181                  1.921
 Frequency:      3151.80                3153.18                3156.04
 Force Cnst:      6.4370                 6.4444                 6.4548
 Red. Mass:       1.0998                 1.1001                 1.0999
 IR Intens:       12.031                  5.934                 13.274
 Frequency:      3157.98                3158.58                3168.66
 Force Cnst:      6.4629                 6.4658                 6.5076
 Red. Mass:       1.0999                 1.1000                 1.1001
 IR Intens:       11.795                 14.805                  5.554
 Frequency:      3177.15                3186.87                3680.07
 Force Cnst:      6.5573                 6.5956                 8.6069
 Red. Mass:       1.1026                 1.1022                 1.0787
 IR Intens:       10.893                  7.102                 33.065

 STANDARD THERMODYNAMIC QUANTITIES AT   298.15 K  AND     1.00 ATM

   This Molecule has  0 Imaginary Frequencies
   Zero point vibrational energy:      128.511 kcal/mol

   Atom    1 Element C  Has Mass   12.00000
   Atom    2 Element C  Has Mass   12.00000
   Atom    3 Element O  Has Mass   15.99491
   Atom    4 Element N  Has Mass   14.00307
   Atom    5 Element C  Has Mass   12.00000
   Atom    6 Element Si Has Mass   27.97693
   Atom    7 Element C  Has Mass   12.00000
   Atom    8 Element C  Has Mass   12.00000
   Atom    9 Element C  Has Mass   12.00000
   Atom   10 Element H  Has Mass    1.00783
   Atom   11 Element H  Has Mass    1.00783
   Atom   12 Element H  Has Mass    1.00783
   Atom   13 Element H  Has Mass    1.00783
   Atom   14 Element H  Has Mass    1.00783
   Atom   15 Element H  Has Mass    1.00783
   Atom   16 Element H  Has Mass    1.00783
   Atom   17 Element H  Has Mass    1.00783
   Atom   18 Element H  Has Mass    1.00783
   Atom   19 Element H  Has Mass    1.00783
   Atom   20 Element H  Has Mass    1.00783
   Atom   21 Element H  Has Mass    1.00783
   Atom   22 Element H  Has Mass    1.00783
   Atom   23 Element H  Has Mass    1.00783
   Atom   24 Element H  Has Mass    1.00783
   Molecular Mass:   145.092360 amu
   Principal axes and moments of inertia in amu*Bohr^2:
                             1           2           3
    Eigenvalues --      790.60748  2417.29126  2537.22820
          X               0.99977    -0.01935     0.00973
          Y               0.01947     0.99972    -0.01309
          Z              -0.00947     0.01327     0.99987
   Rotational Symmetry Number is   1
   The Molecule is an Asymmetric Top
   Translational Enthalpy:        0.889 kcal/mol
   Rotational Enthalpy:           0.889 kcal/mol
   Vibrational Enthalpy:        135.597 kcal/mol
   gas constant (RT):             0.592 kcal/mol
   Translational Entropy:        40.827  cal/mol.K
   Rotational Entropy:           29.962  cal/mol.K
   Vibrational Entropy:          48.421  cal/mol.K

   Total Enthalpy:              137.967 kcal/mol
   Total Entropy:               119.211  cal/mol.K

 Total job time:  34558.32s(wall), 72974.84s(cpu)
        *  Thank you very much for using Q-Chem.  Have a nice day.  *
