 Q-Chem 5.1, Q-Chem, Inc., Pleasanton, CA (2018)
 Q-Chem 5.1.0 for Intel X86 EM64T Linux

User input:
--------------------------------------------------------------
$molecule
0 1
H       2.051  -0.610   1.057
Si       1.630   0.002  -0.004
H       2.064   1.220   0.000
H       2.064  -0.611  -1.057
N      -0.035   0.014  -0.024
H      -0.342   0.462   0.842
H      -0.342  -0.960   0.021
$end

$rem
JOBTYPE  =  opt
METHOD  =  MP2
BASIS  =  6-311G+(d,p)
SCF_MAX_CYCLES  =  200
GEOM_OPT_MAX_CYCLES  =  300
GEOM_OPT_TOL_DISPLACEMENT = 120
GEOM_OPT_TOL_ENERGY = 10
GEOM_OPT_TOL_GRADIENT = 20
$end
--------------------------------------------------------------

   12    -346.2739943044      3.52e-09  Convergence criterion met
 Total energy in the final basis set =     -346.2739943044
        MP2         total energy =                  -346.57431945 au
   11    -346.3169722227      2.62e-09  Convergence criterion met
 Total energy in the final basis set =     -346.3169722227
        MP2         total energy =                  -346.61637148 au
   11    -346.3313200278      2.61e-09  Convergence criterion met
 Total energy in the final basis set =     -346.3313200278
        MP2         total energy =                  -346.63035021 au
   10    -346.3335799663      7.85e-09  Convergence criterion met
 Total energy in the final basis set =     -346.3335799663
        MP2         total energy =                  -346.63241714 au
   10    -346.3341187945      4.89e-09  Convergence criterion met
 Total energy in the final basis set =     -346.3341187945
        MP2         total energy =                  -346.63275787 au
 **  OPTIMIZATION CONVERGED  **
 Total job time:  39.45s(wall), 117.61s(cpu)
        *  Thank you very much for using Q-Chem.  Have a nice day.  *
 Q-Chem 5.1, Q-Chem, Inc., Pleasanton, CA (2018)
 Q-Chem 5.1.0 for Intel X86 EM64T Linux

User input:
--------------------------------------------------------------
$comment
Now calculate the frequency at molecule  the same level of theory
$end

$molecule
read
$end

$rem
JOBTYPE  =  freq
METHOD  =  MP2
BASIS  =  6-311G+(d,p)
SCF_GUESS = read
SCF_MAX_CYCLES  =  200
GEOM_OPT_MAX_CYCLES  =  300
GEOM_OPT_TOL_DISPLACEMENT = 120
GEOM_OPT_TOL_ENERGY = 10
GEOM_OPT_TOL_GRADIENT = 20
$end

--------------------------------------------------------------

    7    -346.3349385894      3.73e-09  Convergence criterion met
 Total energy in the final basis set =     -346.3349385894
        MP2         total energy =                  -346.63309019 au
    7    -346.3349679789      6.63e-09  Convergence criterion met
 Total energy in the final basis set =     -346.3349679789
        MP2         total energy =                  -346.63308986 au
    8    -346.3349312307      3.16e-09  Convergence criterion met
 Total energy in the final basis set =     -346.3349312307
        MP2         total energy =                  -346.63308986 au
    7    -346.3349433709      6.11e-09  Convergence criterion met
 Total energy in the final basis set =     -346.3349433709
        MP2         total energy =                  -346.63309042 au
    7    -346.3349569365      7.52e-09  Convergence criterion met
 Total energy in the final basis set =     -346.3349569365
        MP2         total energy =                  -346.63309042 au

                    Orbital Energies (a.u.)
 --------------------------------------------------------------

 Alpha MOs
 -- Occupied --
-68.781 -15.537  -6.126  -4.234  -4.234  -4.233  -1.135  -0.724
 -0.656  -0.555  -0.493  -0.478  -0.399

          Ground-State Mulliken Net Atomic Charges

     Atom                 Charge (a.u.)
  ----------------------------------------
      1 H                    -0.195281
      2 Si                    0.869932
      3 H                    -0.178788
      4 H                    -0.178792
      5 N                    -0.835530
      6 H                     0.259209
      7 H                     0.259250
  ----------------------------------------
  Sum of atomic charges =     0.000000

                    Cartesian Multipole Moments
 -----------------------------------------------------------------
    Charge (ESU x 10^10)
                 0.0000
    Dipole Moment (Debye)
         X      -0.7895      Y      -0.0003      Z       0.8006
       Tot       1.1244
    Quadrupole Moments (Debye-Ang)
        XX     -20.8028     XY       0.0003     YY     -20.9348
        XZ      -2.0265     YZ       0.0022     ZZ     -24.6645

             Standard Nuclear Orientation (Angstroms)
    I     Atom           X                Y                Z
 ----------------------------------------------------------------
    1      H       1.1703639815     0.0001814159     1.3629268243
    2      Si      0.5804450591    -0.0000006327     0.0029027245
    3      H       1.0528879906     1.2152695843    -0.6867300842
    4      H       1.0528237585    -1.2154841967    -0.6863975153
    5      N      -1.1524061885     0.0000061422    -0.0620314161
    6      H      -1.6677384583     0.8271271580     0.2018988154
    7      H      -1.6677247796    -0.8271280995     0.2018837299
 ----------------------------------------------------------------

 Frequency:       179.49                 422.04                 638.16
 Force Cnst:      0.0193                 0.1267                 0.2492
 Red. Mass:       1.0173                 1.2077                 1.0387
 IR Intens:       13.414                216.483                 29.318
 Frequency:       723.91                 845.37                 941.17
 Force Cnst:      0.3676                 1.9677                 0.6646
 Red. Mass:       1.1906                 4.6733                 1.2733
 IR Intens:       63.762                 56.103                 72.781
 Frequency:       975.56                1035.19                1038.61
 Force Cnst:      0.6058                 0.6872                 0.6650
 Red. Mass:       1.0804                 1.0885                 1.0463
 IR Intens:      131.280                286.138                 90.671
 Frequency:      1599.69                2273.38                2323.10
 Force Cnst:      1.6723                 3.1799                 3.2570
 Red. Mass:       1.1092                 1.0443                 1.0243
 IR Intens:       50.417                196.537                 80.828
 Frequency:      2326.23                3624.87                3723.21
 Force Cnst:      3.3547                 8.1338                 8.9424
 Red. Mass:       1.0522                 1.0507                 1.0949
 IR Intens:      164.126                 21.309                 30.906

 STANDARD THERMODYNAMIC QUANTITIES AT   298.15 K  AND     1.00 ATM

   This Molecule has  0 Imaginary Frequencies
   Zero point vibrational energy:       32.408 kcal/mol

   Atom    1 Element H  Has Mass    1.00783
   Atom    2 Element Si Has Mass   27.97693
   Atom    3 Element H  Has Mass    1.00783
   Atom    4 Element H  Has Mass    1.00783
   Atom    5 Element N  Has Mass   14.00307
   Atom    6 Element H  Has Mass    1.00783
   Atom    7 Element H  Has Mass    1.00783
   Molecular Mass:    47.019150 amu
   Principal axes and moments of inertia in amu*Bohr^2:
                             1           2           3
    Eigenvalues --       26.08226   143.55257   148.58434
          X               0.99988     0.00000    -0.01517
          Y              -0.00000     1.00000     0.00000
          Z               0.01517    -0.00000     0.99988
   Rotational Symmetry Number is   1
   The Molecule is an Asymmetric Top
   Translational Enthalpy:        0.889 kcal/mol
   Rotational Enthalpy:           0.889 kcal/mol
   Vibrational Enthalpy:         33.253 kcal/mol
   gas constant (RT):             0.592 kcal/mol
   Translational Entropy:        37.469  cal/mol.K
   Rotational Entropy:           20.947  cal/mol.K
   Vibrational Entropy:           4.451  cal/mol.K

   Total Enthalpy:               35.623 kcal/mol
   Total Entropy:                62.867  cal/mol.K

 Total job time:  150.37s(wall), 440.44s(cpu)
        *  Thank you very much for using Q-Chem.  Have a nice day.  *
