 Q-Chem 5.1, Q-Chem, Inc., Pleasanton, CA (2018)
 Q-Chem 5.1.0 for Intel X86 EM64T Linux

User input:
--------------------------------------------------------------
$molecule
0 1
H       2.003  -0.609   1.060
Si       1.584   0.000   0.000
H       2.003   1.223   0.003
H       2.014  -0.609  -1.055
O      -0.035  -0.008  -0.014
H      -0.290   0.465   0.805
$end

$rem
JOBTYPE  =  opt
METHOD  =  MP2
BASIS  =  6-311G+(d,p)
SCF_MAX_CYCLES  =  200
GEOM_OPT_MAX_CYCLES  =  300
GEOM_OPT_TOL_DISPLACEMENT = 120
GEOM_OPT_TOL_ENERGY = 10
GEOM_OPT_TOL_GRADIENT = 20
$end
--------------------------------------------------------------

   12    -366.1316354798      2.96e-09  Convergence criterion met
 Total energy in the final basis set =     -366.1316354798
        MP2         total energy =                  -366.44991512 au
   11    -366.1727678995      2.60e-09  Convergence criterion met
 Total energy in the final basis set =     -366.1727678995
        MP2         total energy =                  -366.49009650 au
   11    -366.1850872255      2.60e-09  Convergence criterion met
 Total energy in the final basis set =     -366.1850872255
        MP2         total energy =                  -366.50179924 au
   10    -366.1867513548      7.22e-09  Convergence criterion met
 Total energy in the final basis set =     -366.1867513548
        MP2         total energy =                  -366.50321624 au
   10    -366.1869878856      2.31e-09  Convergence criterion met
 Total energy in the final basis set =     -366.1869878856
        MP2         total energy =                  -366.50329550 au
 **  OPTIMIZATION CONVERGED  **
 Total job time:  29.31s(wall), 86.20s(cpu)
        *  Thank you very much for using Q-Chem.  Have a nice day.  *
 Q-Chem 5.1, Q-Chem, Inc., Pleasanton, CA (2018)
 Q-Chem 5.1.0 for Intel X86 EM64T Linux

User input:
--------------------------------------------------------------
$comment
Now calculate the frequency at molecule  the same level of theory
$end

$molecule
read
$end

$rem
JOBTYPE  =  freq
METHOD  =  MP2
BASIS  =  6-311G+(d,p)
SCF_GUESS = read
SCF_MAX_CYCLES  =  200
GEOM_OPT_MAX_CYCLES  =  300
GEOM_OPT_TOL_DISPLACEMENT = 120
GEOM_OPT_TOL_ENERGY = 10
GEOM_OPT_TOL_GRADIENT = 20
$end

--------------------------------------------------------------

    7    -366.1871346041      6.74e-09  Convergence criterion met
 Total energy in the final basis set =     -366.1871346041
        MP2         total energy =                  -366.50330764 au
    7    -366.1871173442      5.14e-09  Convergence criterion met
 Total energy in the final basis set =     -366.1871173442
        MP2         total energy =                  -366.50330725 au
    8    -366.1871847036      4.18e-09  Convergence criterion met
 Total energy in the final basis set =     -366.1871847036
        MP2         total energy =                  -366.50330731 au
    7    -366.1871517146      9.94e-09  Convergence criterion met
 Total energy in the final basis set =     -366.1871517146
        MP2         total energy =                  -366.50330798 au
    7    -366.1871517126      3.76e-09  Convergence criterion met
 Total energy in the final basis set =     -366.1871517126
        MP2         total energy =                  -366.50330798 au

                    Orbital Energies (a.u.)
 --------------------------------------------------------------

 Alpha MOs
 -- Occupied --
-68.802 -20.559  -6.146  -4.253  -4.253  -4.252  -1.342  -0.763
 -0.652  -0.553  -0.552  -0.477  -0.460

          Ground-State Mulliken Net Atomic Charges

     Atom                 Charge (a.u.)
  ----------------------------------------
      1 H                    -0.187260
      2 Si                    0.846960
      3 H                    -0.187283
      4 H                    -0.163375
      5 O                    -0.588588
      6 H                     0.279546
  ----------------------------------------
  Sum of atomic charges =     0.000000

                    Cartesian Multipole Moments
 -----------------------------------------------------------------
    Charge (ESU x 10^10)
                -0.0000
    Dipole Moment (Debye)
         X       0.2195      Y       1.5135      Z      -0.0019
       Tot       1.5294
    Quadrupole Moments (Debye-Ang)
        XX     -20.6940     XY      -3.3414     YY     -20.8534
        XZ       0.0036     YZ      -0.0019     ZZ     -22.3523

             Standard Nuclear Orientation (Angstroms)
    I     Atom           X                Y                Z
 ----------------------------------------------------------------
    1      H       1.0224044749     0.7291228506     1.1952595664
    2      Si      0.5385719577     0.0084653218    -0.0000010116
    3      H       1.0223504385     0.7295779930    -1.1950094403
    4      H       1.0417927462    -1.3713942935    -0.0002672196
    5      O      -1.1235292895    -0.1125853254     0.0000041079
    6      H      -1.6383207508     0.6948615482    -0.0000016073
 ----------------------------------------------------------------

 Frequency:       208.43                 678.15                 741.06
 Force Cnst:      0.0274                 0.2863                 0.3853
 Red. Mass:       1.0711                 1.0565                 1.1907
 IR Intens:      135.076                 97.164                 86.667
 Frequency:       834.57                 884.12                 998.90
 Force Cnst:      0.9041                 0.9376                 0.6197
 Red. Mass:       2.2032                 2.0359                 1.0541
 IR Intens:      202.972                 20.940                103.149
 Frequency:      1021.22                1042.88                2304.45
 Force Cnst:      0.6653                 0.6976                 3.2884
 Red. Mass:       1.0827                 1.0887                 1.0510
 IR Intens:      149.328                254.619                193.778
 Frequency:      2312.45                2359.17                3963.74
 Force Cnst:      3.2436                 3.4128                 9.8789
 Red. Mass:       1.0295                 1.0407                 1.0672
 IR Intens:      107.373                109.395                 95.722

 STANDARD THERMODYNAMIC QUANTITIES AT   298.15 K  AND     1.00 ATM

   This Molecule has  0 Imaginary Frequencies
   Zero point vibrational energy:       24.802 kcal/mol

   Atom    1 Element H  Has Mass    1.00783
   Atom    2 Element Si Has Mass   27.97693
   Atom    3 Element H  Has Mass    1.00783
   Atom    4 Element H  Has Mass    1.00783
   Atom    5 Element O  Has Mass   15.99491
   Atom    6 Element H  Has Mass    1.00783
   Molecular Mass:    48.003160 amu
   Principal axes and moments of inertia in amu*Bohr^2:
                             1           2           3
    Eigenvalues --       23.17604   132.42485   135.03826
          X               0.99942    -0.03412     0.00000
          Y               0.03412     0.99942     0.00000
          Z              -0.00000    -0.00000     1.00000
   Rotational Symmetry Number is   1
   The Molecule is an Asymmetric Top
   Translational Enthalpy:        0.889 kcal/mol
   Rotational Enthalpy:           0.889 kcal/mol
   Vibrational Enthalpy:         25.427 kcal/mol
   gas constant (RT):             0.592 kcal/mol
   Translational Entropy:        37.530  cal/mol.K
   Rotational Entropy:           20.655  cal/mol.K
   Vibrational Entropy:           3.241  cal/mol.K

   Total Enthalpy:               27.796 kcal/mol
   Total Entropy:                61.425  cal/mol.K

 Total job time:  122.24s(wall), 354.38s(cpu)
        *  Thank you very much for using Q-Chem.  Have a nice day.  *
