 Q-Chem 5.1, Q-Chem, Inc., Pleasanton, CA (2018)
 Q-Chem 5.1.0 for Intel X86 EM64T Linux

User input:
--------------------------------------------------------------
$molecule
0 1
Si        0.003  -0.002  -0.004
C       -0.606  -0.819  -1.418
H       -0.432  -0.608   1.056
H       -0.432   1.219   0.001
C        1.746   0.013   0.022
H       -0.253  -0.308  -2.315
H       -1.696  -0.813  -1.407
H       -0.253  -1.851  -1.424
H        2.098   0.529   0.916
H        2.120  -1.012   0.029
H        2.120   0.531  -0.862
$end

$rem
JOBTYPE  =  opt
METHOD  =  MP2
BASIS  =  6-311G+(d,p)
SCF_MAX_CYCLES  =  200
GEOM_OPT_MAX_CYCLES  =  300
GEOM_OPT_TOL_DISPLACEMENT = 120
GEOM_OPT_TOL_ENERGY = 10
GEOM_OPT_TOL_GRADIENT = 20
$end
--------------------------------------------------------------

   11    -369.3141532169      3.79e-09  Convergence criterion met
 Total energy in the final basis set =     -369.3141532169
        MP2         total energy =                  -369.73960577 au
   10    -369.3545975270      2.66e-09  Convergence criterion met
 Total energy in the final basis set =     -369.3545975270
        MP2         total energy =                  -369.77818740 au
   10    -369.3663360283      2.00e-09  Convergence criterion met
 Total energy in the final basis set =     -369.3663360283
        MP2         total energy =                  -369.78899431 au
    9    -369.3677031337      4.16e-09  Convergence criterion met
 Total energy in the final basis set =     -369.3677031337
        MP2         total energy =                  -369.79010956 au
    8    -369.3677926936      8.15e-09  Convergence criterion met
 Total energy in the final basis set =     -369.3677926936
        MP2         total energy =                  -369.79015169 au
 **  OPTIMIZATION CONVERGED  **
 Total job time:  82.60s(wall), 223.90s(cpu)
        *  Thank you very much for using Q-Chem.  Have a nice day.  *
 Q-Chem 5.1, Q-Chem, Inc., Pleasanton, CA (2018)
 Q-Chem 5.1.0 for Intel X86 EM64T Linux

User input:
--------------------------------------------------------------
$comment
Now calculate the frequency at molecule  the same level of theory
$end

$molecule
read
$end

$rem
JOBTYPE  =  freq
METHOD  =  MP2
BASIS  =  6-311G+(d,p)
SCF_GUESS = read
SCF_MAX_CYCLES  =  200
GEOM_OPT_MAX_CYCLES  =  300
GEOM_OPT_TOL_DISPLACEMENT = 120
GEOM_OPT_TOL_ENERGY = 10
GEOM_OPT_TOL_GRADIENT = 20
$end
--------------------------------------------------------------

    6    -369.3677942692      7.99e-09  Convergence criterion met
 Total energy in the final basis set =     -369.3677942692
        MP2         total energy =                  -369.79015269 au
    6    -369.3677893736      8.76e-09  Convergence criterion met
 Total energy in the final basis set =     -369.3677893736
        MP2         total energy =                  -369.79015250 au
    7    -369.3677993992      3.50e-09  Convergence criterion met
 Total energy in the final basis set =     -369.3677993992
        MP2         total energy =                  -369.79015249 au
    7    -369.3677868574      3.40e-09  Convergence criterion met
 Total energy in the final basis set =     -369.3677868574
        MP2         total energy =                  -369.79015233 au
    7    -369.3678015838      3.99e-09  Convergence criterion met
 Total energy in the final basis set =     -369.3678015838
        MP2         total energy =                  -369.79015232 au

                    Orbital Energies (a.u.)
 --------------------------------------------------------------

 Alpha MOs
 -- Occupied --
-68.760 -11.204 -11.204  -6.108  -4.215  -4.215  -4.214  -0.958
 -0.927  -0.673  -0.570  -0.566  -0.545  -0.545  -0.456  -0.448
 -0.440

          Ground-State Mulliken Net Atomic Charges

     Atom                 Charge (a.u.)
  ----------------------------------------
      1 Si                    0.896738
      2 C                    -0.751164
      3 H                    -0.176117
      4 H                    -0.176124
      5 C                    -0.751114
      6 H                     0.158415
      7 H                     0.162075
      8 H                     0.158413
      9 H                     0.162036
     10 H                     0.158374
     11 H                     0.158468
  ----------------------------------------
  Sum of atomic charges =     0.000000

                    Cartesian Multipole Moments
 -----------------------------------------------------------------
    Charge (ESU x 10^10)
                 0.0000
    Dipole Moment (Debye)
         X       0.0001      Y       0.6191      Z       0.0002
       Tot       0.6191
    Quadrupole Moments (Debye-Ang)
        XX     -29.6896     XY       0.0008     YY     -30.7624
        XZ       0.0004     YZ       0.0003     ZZ     -30.1485

             Standard Nuclear Orientation (Angstroms)
    I     Atom           X                Y                Z
 ----------------------------------------------------------------
    1      Si      0.0000000616    -0.5534927532    -0.0000000077
    2      C      -1.5454423786     0.5136438237     0.0000000231
    3      H      -0.0000003417    -1.4258955547    -1.1974920311
    4      H       0.0000003152    -1.4258930484     1.1974938410
    5      C       1.5454421495     0.5136438261    -0.0000000578
    6      H      -1.5750102387     1.1574431678     0.8842631829
    7      H      -2.4531946910    -0.0965466649    -0.0000999057
    8      H      -1.5749099087     1.1575840135    -0.8841640545
    9      H       2.4531946923    -0.0965464883    -0.0000421329
   10      H       1.5749389424     1.1575431457    -0.8841929109
   11      H       1.5749817422     1.1574840757     0.8842343265
 ----------------------------------------------------------------

 Frequency:       150.71                 171.55                 206.94
 Force Cnst:      0.0137                 0.0191                 0.0589
 Red. Mass:       1.0232                 1.0998                 2.3359
 IR Intens:        0.000                  0.015                  1.528
 Frequency:       470.63                 587.78                 648.83
 Force Cnst:      0.1409                 0.2096                 0.2712
 Red. Mass:       1.0799                 1.0295                 1.0932
 IR Intens:       16.867                  0.000                 16.488
 Frequency:       673.16                 743.93                 874.32
 Force Cnst:      0.9097                 1.1175                 0.6473
 Red. Mass:       3.4072                 3.4270                 1.4372
 IR Intens:        5.176                 14.630                 31.111
 Frequency:       902.06                 909.18                 954.25
 Force Cnst:      0.6855                 0.5704                 0.6782
 Red. Mass:       1.4299                 1.1712                 1.2641
 IR Intens:       76.367                  0.000                274.761
 Frequency:      1007.19                1310.93                1319.31
 Force Cnst:      0.6345                 1.2779                 1.2732
 Red. Mass:       1.0615                 1.2621                 1.2415
 IR Intens:      126.860                 37.913                 16.380
 Frequency:      1468.28                1468.63                1476.11
 Force Cnst:      1.3361                 1.3363                 1.3450
 Red. Mass:       1.0519                 1.0515                 1.0477
 IR Intens:        0.001                  1.881                  3.512
 Frequency:      1479.24                2283.60                2287.61
 Force Cnst:      1.3495                 3.2284                 3.1753
 Red. Mass:       1.0468                 1.0507                 1.0298
 IR Intens:       11.016                178.573                126.492
 Frequency:      3073.72                3074.74                3166.53
 Force Cnst:      5.7641                 5.7691                 6.5031
 Red. Mass:       1.0355                 1.0357                 1.1008
 IR Intens:        4.192                  7.165                  0.000
 Frequency:      3167.40                3169.98                3170.24
 Force Cnst:      6.5036                 6.5155                 6.5177
 Red. Mass:       1.1003                 1.1005                 1.1007
 IR Intens:       18.165                 10.166                  6.420

 STANDARD THERMODYNAMIC QUANTITIES AT   298.15 K  AND     1.00 ATM

   This Molecule has  0 Imaginary Frequencies
   Zero point vibrational energy:       57.493 kcal/mol

   Atom    1 Element Si Has Mass   27.97693
   Atom    2 Element C  Has Mass   12.00000
   Atom    3 Element H  Has Mass    1.00783
   Atom    4 Element H  Has Mass    1.00783
   Atom    5 Element C  Has Mass   12.00000
   Atom    6 Element H  Has Mass    1.00783
   Atom    7 Element H  Has Mass    1.00783
   Atom    8 Element H  Has Mass    1.00783
   Atom    9 Element H  Has Mass    1.00783
   Atom   10 Element H  Has Mass    1.00783
   Atom   11 Element H  Has Mass    1.00783
   Molecular Mass:    60.039570 amu
   Principal axes and moments of inertia in amu*Bohr^2:
                             1           2           3
    Eigenvalues --      108.64174   305.30433   370.79149
          X               1.00000     0.00000     0.00000
          Y              -0.00000     1.00000     0.00000
          Z              -0.00000    -0.00000     1.00000
   Rotational Symmetry Number is   1
   The Molecule is an Asymmetric Top
   Translational Enthalpy:        0.889 kcal/mol
   Rotational Enthalpy:           0.889 kcal/mol
   Vibrational Enthalpy:         59.285 kcal/mol
   gas constant (RT):             0.592 kcal/mol
   Translational Entropy:        38.197  cal/mol.K
   Rotational Entropy:           24.023  cal/mol.K
   Vibrational Entropy:          10.065  cal/mol.K

   Total Enthalpy:               61.655 kcal/mol
   Total Entropy:                72.286  cal/mol.K

 Total job time:  591.74s(wall), 1579.74s(cpu)
        *  Thank you very much for using Q-Chem.  Have a nice day.  *
