 Q-Chem 5.1, Q-Chem, Inc., Pleasanton, CA (2018)
 Q-Chem 5.1.0 for Intel X86 EM64T Linux

User input:
--------------------------------------------------------------
$molecule
0 1
Si        0.007   0.010   0.018
C       -0.592  -0.837   1.423
H       -0.424  -0.600  -1.040
C        1.753  -0.008  -0.013
C       -0.592   1.651  -0.013
H       -0.242  -0.343   2.329
H       -1.682  -0.838   1.412
H       -0.230  -1.865   1.412
H        2.109   0.502  -0.909
H        2.109  -1.038  -0.020
H        2.144   0.501   0.868
H       -0.230   2.155  -0.909
H       -1.682   1.642  -0.020
H       -0.242   2.188   0.868
$end

$rem
JOBTYPE  =  opt
METHOD  =  MP2
BASIS  =  6-311G+(d,p)
SCF_MAX_CYCLES  =  200
GEOM_OPT_MAX_CYCLES  =  300
GEOM_OPT_TOL_DISPLACEMENT = 120
GEOM_OPT_TOL_ENERGY = 10
GEOM_OPT_TOL_GRADIENT = 20
$end
--------------------------------------------------------------

   11    -408.3786107394      3.44e-09  Convergence criterion met
 Total energy in the final basis set =     -408.3786107394
        MP2         total energy =                  -408.95736675 au
   10    -408.4150647105      2.09e-09  Convergence criterion met
 Total energy in the final basis set =     -408.4150647105
        MP2         total energy =                  -408.99157567 au
    9    -408.4240888098      7.84e-09  Convergence criterion met
 Total energy in the final basis set =     -408.4240888098
        MP2         total energy =                  -408.99963357 au
    9    -408.4250657983      2.45e-09  Convergence criterion met
 Total energy in the final basis set =     -408.4250657983
        MP2         total energy =                  -409.00035865 au
    8    -408.4251327893      2.51e-09  Convergence criterion met
 Total energy in the final basis set =     -408.4251327893
        MP2         total energy =                  -409.00038593 au
 **  OPTIMIZATION CONVERGED  **
 Total job time:  179.79s(wall), 458.79s(cpu)
        *  Thank you very much for using Q-Chem.  Have a nice day.  *
 Q-Chem 5.1, Q-Chem, Inc., Pleasanton, CA (2018)
 Q-Chem 5.1.0 for Intel X86 EM64T Linux

User input:
--------------------------------------------------------------
$comment
Now calculate the frequency at molecule  the same level of theory
$end

$molecule
read
$end

$rem
JOBTYPE  =  freq
METHOD  =  MP2
BASIS  =  6-311G+(d,p)
SCF_GUESS = read
SCF_MAX_CYCLES  =  200
GEOM_OPT_MAX_CYCLES  =  300
GEOM_OPT_TOL_DISPLACEMENT = 120
GEOM_OPT_TOL_ENERGY = 10
GEOM_OPT_TOL_GRADIENT = 20
$end

--------------------------------------------------------------

    6    -408.4251280435      5.82e-09  Convergence criterion met
 Total energy in the final basis set =     -408.4251280435
        MP2         total energy =                  -409.00038810 au
    6    -408.4251281465      3.12e-09  Convergence criterion met
 Total energy in the final basis set =     -408.4251281465
        MP2         total energy =                  -409.00038810 au
    6    -408.4251272451      6.17e-09  Convergence criterion met
 Total energy in the final basis set =     -408.4251272451
        MP2         total energy =                  -409.00038808 au
    6    -408.4251362292      7.50e-09  Convergence criterion met
 Total energy in the final basis set =     -408.4251362292
        MP2         total energy =                  -409.00038754 au
    7    -408.4251181018      4.10e-09  Convergence criterion met
 Total energy in the final basis set =     -408.4251181018
        MP2         total energy =                  -409.00038755 au

                    Orbital Energies (a.u.)
 --------------------------------------------------------------

 Alpha MOs
 -- Occupied --
-68.754 -11.199 -11.199 -11.199  -6.101  -4.208  -4.208  -4.208
 -0.966  -0.923  -0.923  -0.648  -0.573  -0.560  -0.560  -0.540
 -0.540  -0.530  -0.441  -0.431  -0.431

          Ground-State Mulliken Net Atomic Charges

     Atom                 Charge (a.u.)
  ----------------------------------------
      1 Si                    1.000068
      2 C                    -0.755928
      3 H                    -0.175666
      4 C                    -0.755917
      5 C                    -0.755982
      6 H                     0.159963
      7 H                     0.160582
      8 H                     0.160588
      9 H                     0.160587
     10 H                     0.160585
     11 H                     0.159962
     12 H                     0.160631
     13 H                     0.160624
     14 H                     0.159903
  ----------------------------------------
  Sum of atomic charges =     0.000000

                    Cartesian Multipole Moments
 -----------------------------------------------------------------
    Charge (ESU x 10^10)
                 0.0000
    Dipole Moment (Debye)
         X       0.0001      Y      -0.0001      Z      -0.4660
       Tot       0.4660
    Quadrupole Moments (Debye-Ang)
        XX     -36.6434     XY       0.0001     YY     -36.6434
        XZ      -0.0007     YZ       0.0009     ZZ     -37.3490

             Standard Nuclear Orientation (Angstroms)
    I     Atom           X                Y                Z
 ----------------------------------------------------------------
    1      Si      0.0000006268     0.0000007997     0.3833311817
    2      C       1.7606563184     0.2503139682    -0.2244833757
    3      H       0.0000049223    -0.0000002524     1.8686251385
    4      C      -0.6635500769    -1.6499292583    -0.2244815418
    5      C      -1.0971078265     1.3996139774    -0.2244819862
    6      H       1.7972780636     0.2553402729    -1.3189726294
    7      H       2.1716237598     1.2019043490     0.1269118392
    8      H       2.4206336043    -0.5488374865     0.1272032628
    9      H      -1.6856708258    -1.8218559886     0.1270967681
   10      H      -0.0450061467    -2.4816458063     0.1270124697
   11      H      -0.6773867208    -1.6841958248    -1.3189714232
   12      H      -2.1266110319     1.2799320849     0.1272227742
   13      H      -0.7347944389     2.3707807325     0.1268883763
   14      H      -1.1200704506     1.4285745990    -1.3189716975
 ----------------------------------------------------------------

 Frequency:       141.01                 164.72                 164.85
 Force Cnst:      0.0118                 0.0166                 0.0166
 Red. Mass:       1.0115                 1.0384                 1.0384
 IR Intens:        0.000                  0.005                  0.004
 Frequency:       199.76                 199.77                 240.39
 Force Cnst:      0.0536                 0.0536                 0.0801
 Red. Mass:       2.2787                 2.2785                 2.3524
 IR Intens:        1.469                  1.468                  3.160
 Frequency:       625.12                 625.12                 635.84
 Force Cnst:      0.2451                 0.2451                 0.8049
 Red. Mass:       1.0644                 1.0644                 3.3790
 IR Intens:       12.415                 12.395                  2.225
 Frequency:       690.40                 728.31                 728.32
 Force Cnst:      0.3277                 0.9235                 0.9236
 Red. Mass:       1.1670                 2.9551                 2.9553
 IR Intens:        0.000                 12.870                 12.887
 Frequency:       864.79                 864.80                 889.48
 Force Cnst:      0.6177                 0.6177                 0.7251
 Red. Mass:       1.4018                 1.4018                 1.5556
 IR Intens:       15.932                 15.939                 59.873
 Frequency:       938.48                 938.49                1307.72
 Force Cnst:      0.6875                 0.6875                 1.2749
 Red. Mass:       1.3249                 1.3249                 1.2653
 IR Intens:      178.282                178.233                 42.249
 Frequency:      1307.73                1319.22                1461.65
 Force Cnst:      1.2749                 1.2664                 1.3270
 Red. Mass:       1.2653                 1.2350                 1.0542
 IR Intens:       42.296                  8.785                  0.000
 Frequency:      1467.78                1467.79                1475.66
 Force Cnst:      1.3345                 1.3345                 1.3438
 Red. Mass:       1.0513                 1.0513                 1.0474
 IR Intens:        0.039                  0.040                  4.612
 Frequency:      1475.66                1485.15                2261.38
 Force Cnst:      1.3438                 1.3584                 3.1341
 Red. Mass:       1.0474                 1.0453                 1.0402
 IR Intens:        4.617                 12.939                173.943
 Frequency:      3067.46                3068.11                3068.12
 Force Cnst:      5.7408                 5.7446                 5.7446
 Red. Mass:       1.0355                 1.0358                 1.0358
 IR Intens:        2.697                  8.247                  8.231
 Frequency:      3158.96                3158.97                3160.33
 Force Cnst:      6.4695                 6.4695                 6.4707
 Red. Mass:       1.1003                 1.1003                 1.0996
 IR Intens:        1.696                  1.681                 27.353
 Frequency:      3163.73                3164.20                3164.22
 Force Cnst:      6.4914                 6.4904                 6.4905
 Red. Mass:       1.1008                 1.1003                 1.1003
 IR Intens:        0.001                 16.132                 16.156

 STANDARD THERMODYNAMIC QUANTITIES AT   298.15 K  AND     1.00 ATM

   This Molecule has  0 Imaginary Frequencies
   Zero point vibrational energy:       75.544 kcal/mol

   Atom    1 Element Si Has Mass   27.97693
   Atom    2 Element C  Has Mass   12.00000
   Atom    3 Element H  Has Mass    1.00783
   Atom    4 Element C  Has Mass   12.00000
   Atom    5 Element C  Has Mass   12.00000
   Atom    6 Element H  Has Mass    1.00783
   Atom    7 Element H  Has Mass    1.00783
   Atom    8 Element H  Has Mass    1.00783
   Atom    9 Element H  Has Mass    1.00783
   Atom   10 Element H  Has Mass    1.00783
   Atom   11 Element H  Has Mass    1.00783
   Atom   12 Element H  Has Mass    1.00783
   Atom   13 Element H  Has Mass    1.00783
   Atom   14 Element H  Has Mass    1.00783
   Molecular Mass:    74.055230 amu
   Principal axes and moments of inertia in amu*Bohr^2:
                             1           2           3
    Eigenvalues --      340.36940   340.37011   575.18799
          X               0.99999    -0.00318     0.00000
          Y               0.00318     0.99999     0.00000
          Z              -0.00000    -0.00000     1.00000
   Rotational Symmetry Number is   1
   The Molecule is an Asymmetric Top
   Translational Enthalpy:        0.889 kcal/mol
   Rotational Enthalpy:           0.889 kcal/mol
   Vibrational Enthalpy:         78.436 kcal/mol
   gas constant (RT):             0.592 kcal/mol
   Translational Entropy:        38.823  cal/mol.K
   Rotational Entropy:           25.702  cal/mol.K
   Vibrational Entropy:          16.788  cal/mol.K

   Total Enthalpy:               80.806 kcal/mol
   Total Entropy:                81.313  cal/mol.K

 Total job time:  1571.41s(wall), 3917.65s(cpu)
        *  Thank you very much for using Q-Chem.  Have a nice day.  *
