 Q-Chem 5.1, Q-Chem, Inc., Pleasanton, CA (2018)
 Q-Chem 5.1.0 for Intel X86 EM64T Linux

User input:
--------------------------------------------------------------
$molecule
0 1
Si       -0.0000646104    0.0000929964    0.0000000000
C        -0.6180988645   -0.8981500444   -1.5419246613
C         1.8882533996    0.0243402580    0.0000000000
C        -0.6180988645   -0.8981500444    1.5419246613
C        -0.6523515532    1.7723397306    0.0000000000
H        -1.7119250636   -0.9295147526   -1.5720520332
H        -0.2565613674   -1.9309769037   -1.5720136144
H        -0.2760966906   -0.4011710838   -2.4553754470
H         2.2791711680    0.5393910015    0.8833189216
H         2.2988299198   -0.9904368396    0.0000000000
H         2.2791711680    0.5393910015   -0.8833189216
H        -0.2760966906   -0.4011710838    2.4553754470
H        -0.2565613674   -1.9309769037    1.5720136144
H        -1.7119250636   -0.9295147526    1.5720520332
H        -0.3110520329    2.3215289308    0.8833187423
H        -1.7468447734    1.7930796995    0.0000000000
H        -0.3110520329    2.3215289308   -0.8833187423
$end

$rem
JOBTYPE  =  opt
METHOD  =  MP2
BASIS  =  6-311G+(d,p)
SCF_MAX_CYCLES  =  200
GEOM_OPT_MAX_CYCLES  =  300
GEOM_OPT_TOL_DISPLACEMENT = 120
GEOM_OPT_TOL_ENERGY = 10
GEOM_OPT_TOL_GRADIENT = 20
$end
--------------------------------------------------------------

   11    -447.4824724041      2.21e-09  Convergence criterion met
 Total energy in the final basis set =     -447.4824724041
        MP2         total energy =                  -448.21128129 au
    7    -447.4824016612      7.89e-09  Convergence criterion met
 Total energy in the final basis set =     -447.4824016612
        MP2         total energy =                  -448.21130265 au
    7    -447.4823121915      1.00e-08  Convergence criterion met
 Total energy in the final basis set =     -447.4823121915
        MP2         total energy =                  -448.21131755 au
    7    -447.4822991158      2.77e-09  Convergence criterion met
 Total energy in the final basis set =     -447.4822991158
        MP2         total energy =                  -448.21132427 au
    7    -447.4823102636      5.53e-09  Convergence criterion met
 Total energy in the final basis set =     -447.4823102636
        MP2         total energy =                  -448.21134273 au
 **  OPTIMIZATION CONVERGED  **
 Total job time:  453.07s(wall), 1054.76s(cpu)
        *  Thank you very much for using Q-Chem.  Have a nice day.  *
 Q-Chem 5.1, Q-Chem, Inc., Pleasanton, CA (2018)
 Q-Chem 5.1.0 for Intel X86 EM64T Linux

User input:
--------------------------------------------------------------
$comment
Now calculate the frequency at molecule  the same level of theory
$end

$molecule
read
$end

$rem
JOBTYPE  =  freq
METHOD  =  MP2
BASIS  =  6-311G+(d,p)
SCF_GUESS = read
SCF_MAX_CYCLES  =  200
GEOM_OPT_MAX_CYCLES  =  300
GEOM_OPT_TOL_DISPLACEMENT = 120
GEOM_OPT_TOL_ENERGY = 10
GEOM_OPT_TOL_GRADIENT = 20
$end

--------------------------------------------------------------

    6    -447.4823218347      7.86e-09  Convergence criterion met
 Total energy in the final basis set =     -447.4823218347
        MP2         total energy =                  -448.21136788 au
    7    -447.4823373218      2.96e-09  Convergence criterion met
 Total energy in the final basis set =     -447.4823373218
        MP2         total energy =                  -448.21136789 au
    6    -447.4823350803      4.57e-09  Convergence criterion met
 Total energy in the final basis set =     -447.4823350803
        MP2         total energy =                  -448.21136797 au
    7    -447.4823242584      3.00e-09  Convergence criterion met
 Total energy in the final basis set =     -447.4823242584
        MP2         total energy =                  -448.21136798 au
    6    -447.4823298812      5.76e-09  Convergence criterion met
 Total energy in the final basis set =     -447.4823298812
        MP2         total energy =                  -448.21136820 au

                    Orbital Energies (a.u.)
 --------------------------------------------------------------

 Alpha MOs
 -- Occupied --
-68.749 -11.195 -11.195 -11.195 -11.195  -6.095  -4.202  -4.202
 -4.202  -0.973  -0.919  -0.919  -0.919  -0.624  -0.565  -0.565
 -0.565  -0.547  -0.547  -0.526  -0.526  -0.526  -0.424  -0.424
 -0.424

          Ground-State Mulliken Net Atomic Charges

     Atom                 Charge (a.u.)
  ----------------------------------------
      1 Si                    1.028132
      2 C                    -0.740650
      3 C                    -0.740673
      4 C                    -0.740697
      5 C                    -0.740674
      6 H                     0.161215
      7 H                     0.161211
      8 H                     0.161210
      9 H                     0.161215
     10 H                     0.161214
     11 H                     0.161211
     12 H                     0.161217
     13 H                     0.161217
     14 H                     0.161212
     15 H                     0.161215
     16 H                     0.161213
     17 H                     0.161212
  ----------------------------------------
  Sum of atomic charges =     0.000000

                    Cartesian Multipole Moments
 -----------------------------------------------------------------
    Charge (ESU x 10^10)
                 0.0000
    Dipole Moment (Debye)
         X      -0.0000      Y       0.0000      Z       0.0004
       Tot       0.0004
    Quadrupole Moments (Debye-Ang)
        XX     -43.6301     XY      -0.0000     YY     -43.6301
        XZ       0.0011     YZ      -0.0016     ZZ     -43.6301

             Standard Nuclear Orientation (Angstroms)
    I     Atom           X                Y                Z
 ----------------------------------------------------------------
    1      Si     -0.0000033546     0.0000046353     0.0000000000
    2      C       1.0436243421     0.3007050894    -1.5359318985
    3      C      -1.4688905960     1.1751812207     0.0000000001
    4      C       1.0436243421     0.3007050892     1.5359318986
    5      C      -0.6183550912    -1.7765951902    -0.0000000002
    6      H       1.9088853506    -0.3701465174    -1.5649929258
    7      H       1.4193705556     1.3290704622    -1.5649505187
    8      H       0.4626055426     0.1333465012    -2.4491515692
    9      H      -2.0974260314     1.0242960957     0.8841604112
   10      H      -1.1407381432     2.2201107732     0.0000000002
   11      H      -2.0974260314     1.0242960958    -0.8841604111
   12      H       0.4626055426     0.1333465008     2.4491515692
   13      H       1.4193705556     1.3290704619     1.5649505189
   14      H       1.9088853506    -0.3701465177     1.5649929258
   15      H      -1.2308056464    -1.9832977591     0.8841611726
   16      H       0.2155075825    -2.4866904865    -0.0000000002
   17      H      -1.2308056464    -1.9832977590    -0.8841611729
 ----------------------------------------------------------------

 Frequency:       128.96                 164.47                 164.70
 Force Cnst:      0.0099                 0.0163                 0.0164
 Red. Mass:       1.0078                 1.0234                 1.0234
 IR Intens:        0.000                  0.000                  0.000
 Frequency:       164.71                 181.90                 182.01
 Force Cnst:      0.0164                 0.0442                 0.0442
 Red. Mass:       1.0234                 2.2661                 2.2665
 IR Intens:        0.000                  0.000                  0.000
 Frequency:       226.98                 227.05                 227.15
 Force Cnst:      0.0703                 0.0703                 0.0704
 Red. Mass:       2.3152                 2.3151                 2.3153
 IR Intens:        4.697                  4.685                  4.695
 Frequency:       601.78                 689.21                 689.26
 Force Cnst:      0.7417                 0.3275                 0.3275
 Red. Mass:       3.4762                 1.1701                 1.1700
 IR Intens:        0.000                  0.000                  0.000
 Frequency:       689.33                 714.92                 714.92
 Force Cnst:      0.3276                 0.8275                 0.8275
 Red. Mass:       1.1701                 2.7480                 2.7480
 IR Intens:        0.000                 13.599                 13.604
 Frequency:       714.96                 839.98                 840.00
 Force Cnst:      0.8277                 0.5490                 0.5491
 Red. Mass:       2.7482                 1.3207                 1.3207
 IR Intens:       13.616                  0.000                  0.000
 Frequency:       898.47                 898.49                 898.50
 Force Cnst:      0.8593                 0.8593                 0.8593
 Red. Mass:       1.8068                 1.8067                 1.8067
 IR Intens:      123.007                122.997                122.994
 Frequency:      1304.17                1304.17                1304.21
 Force Cnst:      1.2688                 1.2688                 1.2689
 Red. Mass:       1.2661                 1.2662                 1.2661
 IR Intens:       44.005                 44.049                 43.992
 Frequency:      1319.58                1462.66                1462.66
 Force Cnst:      1.2597                 1.3281                 1.3281
 Red. Mass:       1.2279                 1.0536                 1.0536
 IR Intens:        0.000                  0.000                  0.000
 Frequency:      1462.67                1465.46                1465.47
 Force Cnst:      1.3281                 1.3282                 1.3282
 Red. Mass:       1.0536                 1.0497                 1.0497
 IR Intens:        0.000                  0.000                  0.000
 Frequency:      1483.00                1483.08                1483.09
 Force Cnst:      1.3548                 1.3549                 1.3549
 Red. Mass:       1.0455                 1.0455                 1.0455
 IR Intens:        8.530                  8.521                  8.521
 Frequency:      3062.36                3062.37                3062.46
 Force Cnst:      5.7228                 5.7228                 5.7231
 Red. Mass:       1.0357                 1.0357                 1.0357
 IR Intens:        9.823                  9.855                  9.894
 Frequency:      3062.80                3154.69                3154.70
 Force Cnst:      5.7233                 6.4509                 6.4509
 Red. Mass:       1.0355                 1.1002                 1.1002
 IR Intens:        0.069                  0.000                  0.000
 Frequency:      3155.04                3155.05                3155.06
 Force Cnst:      6.4541                 6.4542                 6.4542
 Red. Mass:       1.1005                 1.1005                 1.1005
 IR Intens:        0.000                  0.000                  0.000
 Frequency:      3156.79                3156.80                3156.83
 Force Cnst:      6.4561                 6.4561                 6.4562
 Red. Mass:       1.0996                 1.0996                 1.0996
 IR Intens:       33.253                 33.262                 33.209

 STANDARD THERMODYNAMIC QUANTITIES AT   298.15 K  AND     1.00 ATM

   This Molecule has  0 Imaginary Frequencies
   Zero point vibrational energy:       93.427 kcal/mol

   Atom    1 Element Si Has Mass   27.97693
   Atom    2 Element C  Has Mass   12.00000
   Atom    3 Element C  Has Mass   12.00000
   Atom    4 Element C  Has Mass   12.00000
   Atom    5 Element C  Has Mass   12.00000
   Atom    6 Element H  Has Mass    1.00783
   Atom    7 Element H  Has Mass    1.00783
   Atom    8 Element H  Has Mass    1.00783
   Atom    9 Element H  Has Mass    1.00783
   Atom   10 Element H  Has Mass    1.00783
   Atom   11 Element H  Has Mass    1.00783
   Atom   12 Element H  Has Mass    1.00783
   Atom   13 Element H  Has Mass    1.00783
   Atom   14 Element H  Has Mass    1.00783
   Atom   15 Element H  Has Mass    1.00783
   Atom   16 Element H  Has Mass    1.00783
   Atom   17 Element H  Has Mass    1.00783
   Molecular Mass:    88.070890 amu
   Principal axes and moments of inertia in amu*Bohr^2:
                             1           2           3
    Eigenvalues --      583.75144   583.75843   583.75931
          X               1.00000    -0.00103    -0.00000
          Y               0.00103     1.00000    -0.00000
          Z               0.00000     0.00000     1.00000
   Rotational Symmetry Number is   1
   The Molecule is an Asymmetric Top
   Translational Enthalpy:        0.889 kcal/mol
   Rotational Enthalpy:           0.889 kcal/mol
   Vibrational Enthalpy:         97.499 kcal/mol
   gas constant (RT):             0.592 kcal/mol
   Translational Entropy:        39.339  cal/mol.K
   Rotational Entropy:           26.789  cal/mol.K
   Vibrational Entropy:          24.030  cal/mol.K

   Total Enthalpy:               99.869 kcal/mol
   Total Entropy:                90.158  cal/mol.K

 Total job time:  2323.59s(wall), 5395.27s(cpu)
        *  Thank you very much for using Q-Chem.  Have a nice day.  *
