 Q-Chem 5.1, Q-Chem, Inc., Pleasanton, CA (2018)
 Q-Chem 5.1.0 for Intel X86 EM64T Linux

User input:
--------------------------------------------------------------
$molecule
0 1
C         1.5210558449   -0.4520793426    0.0228272991
Si       -0.0614872731    0.5491367157   -0.0912552964
H        -0.0009684783    1.3660694051   -1.3437137228
H        -0.1871343644    1.5019500950    1.0439571138
N        -1.4224195835   -0.5311166871    0.0316425335
H         1.5626686802   -1.0027192421    0.9657160993
H         1.5916871432   -1.1777558448   -0.7931684349
H         2.4011667491    0.1949289956   -0.0373153708
H        -2.3336459474   -0.1385111820    0.2390142837
H        -1.5139627015   -1.2834855221   -0.6417744953
$end

$rem
JOBTYPE  =  opt
METHOD  =  MP2
BASIS  =  6-311G+(d,p)
SCF_MAX_CYCLES  =  200
GEOM_OPT_MAX_CYCLES  =  300
GEOM_OPT_TOL_DISPLACEMENT = 120
GEOM_OPT_TOL_ENERGY = 10
GEOM_OPT_TOL_GRADIENT = 20
$end
--------------------------------------------------------------

   12    -385.3934669842      4.40e-09  Convergence criterion met
 Total energy in the final basis set =     -385.3934669842
        MP2         total energy =                  -385.84375118 au
   10    -385.3937702665      3.85e-09  Convergence criterion met
 Total energy in the final basis set =     -385.3937702665
        MP2         total energy =                  -385.84389789 au
    9    -385.3937924620      3.27e-09  Convergence criterion met
 Total energy in the final basis set =     -385.3937924620
        MP2         total energy =                  -385.84390551 au
    9    -385.3938182727      4.61e-09  Convergence criterion met
 Total energy in the final basis set =     -385.3938182727
        MP2         total energy =                  -385.84390950 au
    8    -385.3938355489      7.82e-09  Convergence criterion met
 Total energy in the final basis set =     -385.3938355489
        MP2         total energy =                  -385.84391053 au
 **  OPTIMIZATION CONVERGED  **
 Total job time:  72.66s(wall), 202.68s(cpu)
        *  Thank you very much for using Q-Chem.  Have a nice day.  *
 Q-Chem 5.1, Q-Chem, Inc., Pleasanton, CA (2018)
 Q-Chem 5.1.0 for Intel X86 EM64T Linux

User input:
--------------------------------------------------------------
$comment
Now calculate the frequency at molecule  the same level of theory
$end

$molecule
read
$end

$rem
JOBTYPE  =  freq
METHOD  =  MP2
BASIS  =  6-311G+(d,p)
SCF_GUESS = read
SCF_MAX_CYCLES  =  200
GEOM_OPT_MAX_CYCLES  =  300
GEOM_OPT_TOL_DISPLACEMENT = 120
GEOM_OPT_TOL_ENERGY = 10
GEOM_OPT_TOL_GRADIENT = 20
$end

--------------------------------------------------------------

    7    -385.3938480973      3.76e-09  Convergence criterion met
 Total energy in the final basis set =     -385.3938480973
        MP2         total energy =                  -385.84391099 au
    7    -385.3938659246      3.47e-09  Convergence criterion met
 Total energy in the final basis set =     -385.3938659246
        MP2         total energy =                  -385.84391061 au
    7    -385.3938335807      6.29e-09  Convergence criterion met
 Total energy in the final basis set =     -385.3938335807
        MP2         total energy =                  -385.84391060 au
    7    -385.3938660792      7.74e-09  Convergence criterion met
 Total energy in the final basis set =     -385.3938660792
        MP2         total energy =                  -385.84391067 au
    8    -385.3938336104      3.12e-09  Convergence criterion met
 Total energy in the final basis set =     -385.3938336104
        MP2         total energy =                  -385.84391072 au

                    Orbital Energies (a.u.)
 --------------------------------------------------------------

 Alpha MOs
 -- Occupied --
-68.774 -15.531 -11.202  -6.119  -4.226  -4.226  -4.225  -1.130
 -0.942  -0.698  -0.650  -0.570  -0.557  -0.525  -0.473  -0.454
 -0.393

          Ground-State Mulliken Net Atomic Charges

     Atom                 Charge (a.u.)
  ----------------------------------------
      1 C                    -0.800613
      2 Si                    1.024416
      3 H                    -0.199205
      4 H                    -0.188755
      5 N                    -0.837815
      6 H                     0.172052
      7 H                     0.154393
      8 H                     0.158076
      9 H                     0.266731
     10 H                     0.250721
  ----------------------------------------
  Sum of atomic charges =    -0.000000

                    Cartesian Multipole Moments
 -----------------------------------------------------------------
    Charge (ESU x 10^10)
                -0.0000
    Dipole Moment (Debye)
         X      -0.4369      Y      -0.4058      Z      -0.6131
       Tot       0.8552
    Quadrupole Moments (Debye-Ang)
        XX     -25.9064     XY       0.3651     YY     -29.6650
        XZ       0.7066     YZ       2.2746     ZZ     -30.2148

             Standard Nuclear Orientation (Angstroms)
    I     Atom           X                Y                Z
 ----------------------------------------------------------------
    1      C       1.5252875791    -0.4611862350     0.0394743362
    2      Si     -0.0590232792     0.5296190591    -0.0284476934
    3      H      -0.0247034980     1.3655789599    -1.2560982112
    4      H      -0.1907494354     1.4422031393     1.1266439709
    5      N      -1.4077631391    -0.5628387764     0.0639777542
    6      H       1.5865108164    -1.0349804592     0.9677658073
    7      H       1.5816120518    -1.1640150696    -0.7977634147
    8      H       2.3999972294     0.1936005127    -0.0209416250
    9      H      -2.3202923093    -0.2066724672     0.3108035610
   10      H      -1.5034324469    -1.3033925989    -0.6168326770
 ----------------------------------------------------------------

 Frequency:       151.48                 158.34                 266.94
 Force Cnst:      0.0157                 0.0167                 0.0778
 Red. Mass:       1.1649                 1.1312                 1.8526
 IR Intens:       11.647                  1.483                 10.706
 Frequency:       439.04                 511.36                 666.56
 Force Cnst:      0.1382                 0.1663                 0.2796
 Red. Mass:       1.2165                 1.0797                 1.0679
 IR Intens:      200.417                 22.254                 20.568
 Frequency:       698.89                 761.10                 833.99
 Force Cnst:      0.7536                 0.4739                 1.3464
 Red. Mass:       2.6188                 1.3884                 3.2854
 IR Intens:        5.281                 53.291                 28.543
 Frequency:       899.63                 910.66                 982.82
 Force Cnst:      0.6251                 0.6763                 0.7311
 Red. Mass:       1.3109                 1.3842                 1.2847
 IR Intens:       44.929                 60.483                311.609
 Frequency:      1030.01                1313.76                1470.65
 Force Cnst:      0.6674                 1.2848                 1.3374
 Red. Mass:       1.0677                 1.2634                 1.0495
 IR Intens:      144.319                 35.115                  4.528
 Frequency:      1472.50                1597.74                2253.17
 Force Cnst:      1.3400                 1.6686                 3.1172
 Red. Mass:       1.0489                 1.1094                 1.0422
 IR Intens:        3.752                 52.957                209.046
 Frequency:      2305.62                3074.65                3164.78
 Force Cnst:      3.2514                 5.7693                 6.4899
 Red. Mass:       1.0381                 1.0358                 1.0998
 IR Intens:      142.720                  4.384                  9.432
 Frequency:      3178.12                3615.79                3713.92
 Force Cnst:      6.5528                 8.0936                 8.8938
 Red. Mass:       1.1011                 1.0507                 1.0944
 IR Intens:        6.786                 17.912                 24.851

 STANDARD THERMODYNAMIC QUANTITIES AT   298.15 K  AND     1.00 ATM

   This Molecule has  0 Imaginary Frequencies
   Zero point vibrational energy:       50.709 kcal/mol

   Atom    1 Element C  Has Mass   12.00000
   Atom    2 Element Si Has Mass   27.97693
   Atom    3 Element H  Has Mass    1.00783
   Atom    4 Element H  Has Mass    1.00783
   Atom    5 Element N  Has Mass   14.00307
   Atom    6 Element H  Has Mass    1.00783
   Atom    7 Element H  Has Mass    1.00783
   Atom    8 Element H  Has Mass    1.00783
   Atom    9 Element H  Has Mass    1.00783
   Atom   10 Element H  Has Mass    1.00783
   Molecular Mass:    61.034810 amu
   Principal axes and moments of inertia in amu*Bohr^2:
                             1           2           3
    Eigenvalues --      100.19790   283.41508   347.79803
          X               0.99984    -0.01771     0.00301
          Y               0.01761     0.99935     0.03149
          Z              -0.00356    -0.03143     0.99950
   Rotational Symmetry Number is   1
   The Molecule is an Asymmetric Top
   Translational Enthalpy:        0.889 kcal/mol
   Rotational Enthalpy:           0.889 kcal/mol
   Vibrational Enthalpy:         52.482 kcal/mol
   gas constant (RT):             0.592 kcal/mol
   Translational Entropy:        38.246  cal/mol.K
   Rotational Entropy:           23.805  cal/mol.K
   Vibrational Entropy:           9.895  cal/mol.K

   Total Enthalpy:               54.852 kcal/mol
   Total Entropy:                71.946  cal/mol.K

 Total job time:  432.07s(wall), 1189.46s(cpu)
        *  Thank you very much for using Q-Chem.  Have a nice day.  *
