 Q-Chem 5.1, Q-Chem, Inc., Pleasanton, CA (2018)
 Q-Chem 5.1.0 for Intel X86 EM64T Linux

User input:
--------------------------------------------------------------
$molecule
0 1
C         1.4935376149   -0.4260858074   -0.0000113654
Si       -0.1108518219    0.5267090240   -0.0001330548
H        -0.1963368902    1.4078008799   -1.2001750217
H        -0.1960438568    1.4086205915    1.1993281249
O        -1.3392565228   -0.6136706926    0.0004129535
H         1.5667835265   -1.0642174936    0.8841559784
H         1.5663937966   -1.0650747421   -0.8835921417
H         2.3515944685    0.2527048564   -0.0005312349
H        -2.2456133566   -0.2701520450    0.0004998144
$end

$rem
JOBTYPE  =  opt
METHOD  =  MP2
BASIS  =  6-311G+(d,p)
SCF_MAX_CYCLES  =  200
GEOM_OPT_MAX_CYCLES  =  300
GEOM_OPT_TOL_DISPLACEMENT = 120
GEOM_OPT_TOL_ENERGY = 10
GEOM_OPT_TOL_GRADIENT = 20
$end
--------------------------------------------------------------

   12    -405.2468976723      4.48e-09  Convergence criterion met
 Total energy in the final basis set =     -405.2468976723
        MP2         total energy =                  -405.71518489 au
   10    -405.2477675506      5.17e-09  Convergence criterion met
 Total energy in the final basis set =     -405.2477675506
        MP2         total energy =                  -405.71548276 au
    9    -405.2478574745      3.43e-09  Convergence criterion met
 Total energy in the final basis set =     -405.2478574745
        MP2         total energy =                  -405.71549551 au
    9    -405.2479153560      2.65e-09  Convergence criterion met
 Total energy in the final basis set =     -405.2479153560
        MP2         total energy =                  -405.71550021 au
    8    -405.2479265141      2.79e-09  Convergence criterion met
 Total energy in the final basis set =     -405.2479265141
        MP2         total energy =                  -405.71550053 au
 **  OPTIMIZATION CONVERGED  **
 Total job time:  41.18s(wall), 115.18s(cpu)
        *  Thank you very much for using Q-Chem.  Have a nice day.  *
 Q-Chem 5.1, Q-Chem, Inc., Pleasanton, CA (2018)
 Q-Chem 5.1.0 for Intel X86 EM64T Linux

User input:
--------------------------------------------------------------
$comment
Now calculate the frequency at molecule  the same level of theory
$end

$molecule
read
$end

$rem
JOBTYPE  =  freq
METHOD  =  MP2
BASIS  =  6-311G+(d,p)
SCF_GUESS = read
SCF_MAX_CYCLES  =  200
GEOM_OPT_MAX_CYCLES  =  300
GEOM_OPT_TOL_DISPLACEMENT = 120
GEOM_OPT_TOL_ENERGY = 10
GEOM_OPT_TOL_GRADIENT = 20
$end

--------------------------------------------------------------

    8    -405.2478919146      3.24e-09  Convergence criterion met
 Total energy in the final basis set =     -405.2478919146
        MP2         total energy =                  -405.71549962 au
    7    -405.2479127150      4.47e-09  Convergence criterion met
 Total energy in the final basis set =     -405.2479127150
        MP2         total energy =                  -405.71550045 au
    7    -405.2479432939      6.22e-09  Convergence criterion met
 Total energy in the final basis set =     -405.2479432939
        MP2         total energy =                  -405.71550044 au
    7    -405.2479281146      4.83e-09  Convergence criterion met
 Total energy in the final basis set =     -405.2479281146
        MP2         total energy =                  -405.71550056 au
    7    -405.2479281223      2.78e-09  Convergence criterion met
 Total energy in the final basis set =     -405.2479281223
        MP2         total energy =                  -405.71550056 au

                    Orbital Energies (a.u.)
 --------------------------------------------------------------

 Alpha MOs
 -- Occupied --
-68.792 -20.553 -11.206  -6.136  -4.244  -4.243  -4.243  -1.335
 -0.949  -0.739  -0.644  -0.572  -0.552  -0.534  -0.530  -0.452
 -0.449

          Ground-State Mulliken Net Atomic Charges

     Atom                 Charge (a.u.)
  ----------------------------------------
      1 C                    -0.810852
      2 Si                    0.991569
      3 H                    -0.193813
      4 H                    -0.193790
      5 O                    -0.577858
      6 H                     0.172509
      7 H                     0.172515
      8 H                     0.157781
      9 H                     0.281939
  ----------------------------------------
  Sum of atomic charges =    -0.000000

                    Cartesian Multipole Moments
 -----------------------------------------------------------------
    Charge (ESU x 10^10)
                 0.0000
    Dipole Moment (Debye)
         X      -0.2944      Y       0.9160      Z      -0.0016
       Tot       0.9621
    Quadrupole Moments (Debye-Ang)
        XX     -23.1875     XY      -1.2826     YY     -30.5062
        XZ       0.0045     YZ       0.0005     ZZ     -28.9622

             Standard Nuclear Orientation (Angstroms)
    I     Atom           X                Y                Z
 ----------------------------------------------------------------
    1      C       1.5129962879    -0.4041411266     0.0000048004
    2      Si     -0.1076717729     0.5069450756    -0.0000011370
    3      H      -0.2330884272     1.3723487253    -1.1945914307
    4      H      -0.2331131365     1.3723421952     1.1945918473
    5      O      -1.3049325260    -0.6585533341    -0.0000117208
    6      H       1.6006537485    -1.0384731740     0.8858877257
    7      H       1.6005912597    -1.0385732458    -0.8858131384
    8      H       2.3521840003     0.2983319182    -0.0000655808
    9      H      -2.2183401435    -0.3699340454     0.0000714589
 ----------------------------------------------------------------

 Frequency:       111.17                 173.83                 245.41
 Force Cnst:      0.0082                 0.0186                 0.1044
 Red. Mass:       1.1260                 1.0435                 2.9433
 IR Intens:       58.572                 77.410                  4.476
 Frequency:       510.21                 698.16                 727.66
 Force Cnst:      0.1635                 0.4498                 0.5324
 Red. Mass:       1.0661                 1.5664                 1.7067
 IR Intens:       17.507                 58.241                 93.551
 Frequency:       747.41                 838.07                 852.84
 Force Cnst:      0.3865                 0.6095                 1.7403
 Red. Mass:       1.1743                 1.4728                 4.0611
 IR Intens:       67.106                122.813                 38.547
 Frequency:       899.54                 991.60                1039.38
 Force Cnst:      0.6230                 0.7668                 0.6799
 Red. Mass:       1.3069                 1.3236                 1.0683
 IR Intens:       47.459                284.481                159.422
 Frequency:      1316.86                1465.03                1473.23
 Force Cnst:      1.2971                 1.3256                 1.3410
 Red. Mass:       1.2696                 1.0482                 1.0487
 IR Intens:       38.136                  4.532                  3.648
 Frequency:      2281.21                2291.76                3079.99
 Force Cnst:      3.2227                 3.1863                 5.7892
 Red. Mass:       1.0511                 1.0297                 1.0358
 IR Intens:      212.630                136.582                  2.484
 Frequency:      3173.44                3182.55                3958.23
 Force Cnst:      6.5264                 6.5711                 9.8503
 Red. Mass:       1.0999                 1.1011                 1.0671
 IR Intens:        6.238                  4.677                 89.637

 STANDARD THERMODYNAMIC QUANTITIES AT   298.15 K  AND     1.00 ATM

   This Molecule has  0 Imaginary Frequencies
   Zero point vibrational energy:       42.969 kcal/mol

   Atom    1 Element C  Has Mass   12.00000
   Atom    2 Element Si Has Mass   27.97693
   Atom    3 Element H  Has Mass    1.00783
   Atom    4 Element H  Has Mass    1.00783
   Atom    5 Element O  Has Mass   15.99491
   Atom    6 Element H  Has Mass    1.00783
   Atom    7 Element H  Has Mass    1.00783
   Atom    8 Element H  Has Mass    1.00783
   Atom    9 Element H  Has Mass    1.00783
   Molecular Mass:    62.018820 amu
   Principal axes and moments of inertia in amu*Bohr^2:
                             1           2           3
    Eigenvalues --       95.05804   268.85372   332.07074
          X               0.99879    -0.04922    -0.00000
          Y               0.04922     0.99879    -0.00000
          Z               0.00000     0.00000     1.00000
   Rotational Symmetry Number is   1
   The Molecule is an Asymmetric Top
   Translational Enthalpy:        0.889 kcal/mol
   Rotational Enthalpy:           0.889 kcal/mol
   Vibrational Enthalpy:         44.610 kcal/mol
   gas constant (RT):             0.592 kcal/mol
   Translational Entropy:        38.294  cal/mol.K
   Rotational Entropy:           23.655  cal/mol.K
   Vibrational Entropy:           9.592  cal/mol.K

   Total Enthalpy:               46.980 kcal/mol
   Total Entropy:                71.541  cal/mol.K

 Total job time:  335.51s(wall), 927.74s(cpu)
        *  Thank you very much for using Q-Chem.  Have a nice day.  *
